ITEM: TIMESTEP
0
ITEM: NUMBER OF ATOMS
9240
ITEM: BOX BOUNDS ss ss ss
-3.7007399999999996e-02 3.7007399999999996e-02
-2.0002499999999999e-03 2.5000000000000004e-07
-3.7007399999999996e-02 3.7007399999999996e-02
ITEM: ATOMS id type x y z c_1
0 1 -0.037209375 -0.00261666666667 -0.000590625 0.321712
1 1 -0.037209375 -0.00125 -0.000590625 0.321712
2 1 -0.037209375 0.000116666666667 -0.000590625 0.321712
3 1 -0.036028125 -0.00261666666667 -0.007678125 0.206692
4 1 -0.036028125 -0.00261666666667 -0.006496875 0.116382
5 1 -0.036028125 -0.00261666666667 -0.005315625 0.21941
6 1 -0.036028125 -0.00261666666667 -0.004134375 0.128188
7 1 -0.036028125 -0.00261666666667 -0.002953125 0.229852
8 1 -0.036028125 -0.00261666666667 -0.001771875 0.139532
9 1 -0.036028125 -0.00261666666667 -0.000590625 0.240012
10 1 -0.036028125 -0.00261666666667 0.000590625 0.148305
11 1 -0.036028125 -0.00261666666667 0.001771875 0.246405
12 1 -0.036028125 -0.00261666666667 0.002953125 0.152197
13 1 -0.036028125 -0.00261666666667 0.004134375 0.245246
14 1 -0.036028125 -0.00261666666667 0.005315625 0.148417
15 1 -0.036028125 -0.00261666666667 0.006496875 0.235447
16 1 -0.036028125 -0.00261666666667 0.007678125 0.138629
17 1 -0.036028125 -0.00125 -0.007678125 0.206692
18 1 -0.036028125 -0.00125 -0.006496875 0.116382
19 1 -0.036028125 -0.00125 -0.005315625 0.21941
20 1 -0.036028125 -0.00125 -0.004134375 0.128188
21 1 -0.036028125 -0.00125 -0.002953125 0.229852
22 1 -0.036028125 -0.00125 -0.001771875 0.139532
23 1 -0.036028125 -0.00125 -0.000590625 0.240012
24 1 -0.036028125 -0.00125 0.000590625 0.148305
25 1 -0.036028125 -0.00125 0.001771875 0.246405
26 1 -0.036028125 -0.00125 0.002953125 0.152197
27 1 -0.036028125 -0.00125 0.004134375 0.245246
28 1 -0.036028125 -0.00125 0.005315625 0.148417
29 1 -0.036028125 -0.00125 0.006496875 0.235447
30 1 -0.036028125 -0.00125 0.007678125 0.138629
31 1 -0.036028125 0.000116666666667 -0.007678125 0.206692
32 1 -0.036028125 0.000116666666667 -0.006496875 0.116382
33 1 -0.036028125 0.000116666666667 -0.005315625 0.21941
34 1 -0.036028125 0.000116666666667 -0.004134375 0.128188
35 1 -0.036028125 0.000116666666667 -0.002953125 0.229852
36 1 -0.036028125 0.000116666666667 -0.001771875 0.139532
37 1 -0.036028125 0.000116666666667 -0.000590625 0.240012
38 1 -0.036028125 0.000116666666667 0.000590625 0.148305
39 1 -0.036028125 0.000116666666667 0.001771875 0.246405
40 1 -0.036028125 0.000116666666667 0.002953125 0.152197
41 1 -0.036028125 0.000116666666667 0.004134375 0.245246
42 1 -0.036028125 0.000116666666667 0.005315625 0.148417
43 1 -0.036028125 0.000116666666667 0.006496875 0.235447
44 1 -0.036028125 0.000116666666667 0.007678125 0.138629
45 1 -0.034846875 -0.00261666666667 -0.011221875 0.0999736
46 1 -0.034846875 -0.00261666666667 -0.010040625 0.162932
47 1 -0.034846875 -0.00261666666667 -0.008859375 0.118019
48 1 -0.034846875 -0.00261666666667 -0.007678125 0.179415
49 1 -0.034846875 -0.00261666666667 -0.006496875 0.134056
50 1 -0.034846875 -0.00261666666667 -0.005315625 0.19135
51 1 -0.034846875 -0.00261666666667 -0.004134375 0.148217
52 1 -0.034846875 -0.00261666666667 -0.002953125 0.202252
53 1 -0.034846875 -0.00261666666667 -0.001771875 0.161696
54 1 -0.034846875 -0.00261666666667 -0.000590625 0.21064
55 1 -0.034846875 -0.00261666666667 0.000590625 0.172283
56 1 -0.034846875 -0.00261666666667 0.001771875 0.216068
57 1 -0.034846875 -0.00261666666667 0.002953125 0.175655
58 1 -0.034846875 -0.00261666666667 0.004134375 0.211737
59 1 -0.034846875 -0.00261666666667 0.005315625 0.170112
60 1 -0.034846875 -0.00261666666667 0.006496875 0.199977
61 1 -0.034846875 -0.00261666666667 0.007678125 0.156241
62 1 -0.034846875 -0.00261666666667 0.008859375 0.181115
63 1 -0.034846875 -0.00261666666667 0.010040625 0.13684
64 1 -0.034846875 -0.00261666666667 0.011221875 0.159652
65 1 -0.034846875 -0.00125 -0.011221875 0.0999736
66 1 -0.034846875 -0.00125 -0.010040625 0.162932
67 1 -0.034846875 -0.00125 -0.008859375 0.118019
68 1 -0.034846875 -0.00125 -0.007678125 0.179415
69 1 -0.034846875 -0.00125 -0.006496875 0.134056
70 1 -0.034846875 -0.00125 -0.005315625 0.19135
71 1 -0.034846875 -0.00125 -0.004134375 0.148217
72 1 -0.034846875 -0.00125 -0.002953125 0.202252
73 1 -0.034846875 -0.00125 -0.001771875 0.161696
74 1 -0.034846875 -0.00125 -0.000590625 0.21064
75 1 -0.034846875 -0.00125 0.000590625 0.172283
76 1 -0.034846875 -0.00125 0.001771875 0.216068
77 1 -0.034846875 -0.00125 0.002953125 0.175655
78 1 -0.034846875 -0.00125 0.004134375 0.211737
79 1 -0.034846875 -0.00125 0.005315625 0.170112
80 1 -0.034846875 -0.00125 0.006496875 0.199977
81 1 -0.034846875 -0.00125 0.007678125 0.156241
82 1 -0.034846875 -0.00125 0.008859375 0.181115
83 1 -0.034846875 -0.00125 0.010040625 0.13684
84 1 -0.034846875 -0.00125 0.011221875 0.159652
85 1 -0.034846875 0.000116666666667 -0.011221875 0.0999736
86 1 -0.034846875 0.000116666666667 -0.010040625 0.162932
87 1 -0.034846875 0.000116666666667 -0.008859375 0.118019
88 1 -0.034846875 0.000116666666667 -0.007678125 0.179415
89 1 -0.034846875 0.000116666666667 -0.006496875 0.134056
90 1 -0.034846875 0.000116666666667 -0.005315625 0.19135
91 1 -0.034846875 0.000116666666667 -0.004134375 0.148217
92 1 -0.034846875 0.000116666666667 -0.002953125 0.202252
93 1 -0.034846875 0.000116666666667 -0.001771875 0.161696
94 1 -0.034846875 0.000116666666667 -0.000590625 0.21064
95 1 -0.034846875 0.000116666666667 0.000590625 0.172283
96 1 -0.034846875 0.000116666666667 0.001771875 0.216068
97 1 -0.034846875 0.000116666666667 0.002953125 0.175655
98 1 -0.034846875 0.000116666666667 0.004134375 0.211737
99 1 -0.034846875 0.000116666666667 0.005315625 0.170112
100 1 -0.034846875 0.000116666666667 0.006496875 0.199977
101 1 -0.034846875 0.000116666666667 0.007678125 0.156241
102 1 -0.034846875 0.000116666666667 0.008859375 0.181115
103 1 -0.034846875 0.000116666666667 0.010040625 0.13684
104 1 -0.034846875 0.000116666666667 0.011221875 0.159652
105 1 -0.033665625 -0.00261666666667 -0.013584375 0.143575
106 1 -0.033665625 -0.00261666666667 -0.012403125 0.252426
107 1 -0.033665625 -0.00261666666667 -0.011221875 0.186067
108 1 -0.033665625 -0.00261666666667 -0.010040625 0.289672
109 1 -0.033665625 -0.00261666666667 -0.008859375 0.223888
110 1 -0.033665625 -0.00261666666667 -0.007678125 0.316051
111 1 -0.033665625 -0.00261666666667 -0.006496875 0.254898
112 1 -0.033665625 -0.00261666666667 -0.005315625 0.336432
113 1 -0.033665625 -0.00261666666667 -0.004134375 0.27914
114 1 -0.033665625 -0.00261666666667 -0.002953125 0.352264
115 1 -0.033665625 -0.00261666666667 -0.001771875 0.300729
116 1 -0.033665625 -0.00261666666667 -0.000590625 0.36599
117 1 -0.033665625 -0.00261666666667 0.000590625 0.315508
118 1 -0.033665625 -0.00261666666667 0.001771875 0.372916
119 1 -0.033665625 -0.00261666666667 0.002953125 0.318735
120 1 -0.033665625 -0.00261666666667 0.004134375 0.368188
121 1 -0.033665625 -0.00261666666667 0.005315625 0.305117
122 1 -0.033665625 -0.00261666666667 0.006496875 0.348477
123 1 -0.033665625 -0.00261666666667 0.007678125 0.276712
124 1 -0.033665625 -0.00261666666667 0.008859375 0.317829
125 1 -0.033665625 -0.00261666666667 0.010040625 0.23589
126 1 -0.033665625 -0.00261666666667 0.011221875 0.27629
127 1 -0.033665625 -0.00261666666667 0.012403125 0.188618
128 1 -0.033665625 -0.00261666666667 0.013584375 0.233337
129 1 -0.033665625 -0.00125 -0.013584375 0.143575
130 1 -0.033665625 -0.00125 -0.012403125 0.252426
131 1 -0.033665625 -0.00125 -0.011221875 0.186067
132 1 -0.033665625 -0.00125 -0.010040625 0.289672
133 1 -0.033665625 -0.00125 -0.008859375 0.223888
134 1 -0.033665625 -0.00125 -0.007678125 0.316051
135 1 -0.033665625 -0.00125 -0.006496875 0.254898
136 1 -0.033665625 -0.00125 -0.005315625 0.336432
137 1 -0.033665625 -0.00125 -0.004134375 0.27914
138 1 -0.033665625 -0.00125 -0.002953125 0.352264
139 1 -0.033665625 -0.00125 -0.001771875 0.300729
140 1 -0.033665625 -0.00125 -0.000590625 0.36599
141 1 -0.033665625 -0.00125 0.000590625 0.315508
142 1 -0.033665625 -0.00125 0.001771875 0.372916
143 1 -0.033665625 -0.00125 0.002953125 0.318735
144 1 -0.033665625 -0.00125 0.004134375 0.368188
145 1 -0.033665625 -0.00125 0.005315625 0.305117
146 1 -0.033665625 -0.00125 0.006496875 0.348477
147 1 -0.033665625 -0.00125 0.007678125 0.276712
148 1 -0.033665625 -0.00125 0.008859375 0.317829
149 1 -0.033665625 -0.00125 0.010040625 0.23589
150 1 -0.033665625 -0.00125 0.011221875 0.27629
151 1 -0.033665625 -0.00125 0.012403125 0.188618
152 1 -0.033665625 -0.00125 0.013584375 0.233337
153 1 -0.033665625 0.000116666666667 -0.013584375 0.143575
154 1 -0.033665625 0.000116666666667 -0.012403125 0.252426
155 1 -0.033665625 0.000116666666667 -0.011221875 0.186067
156 1 -0.033665625 0.000116666666667 -0.010040625 0.289672
157 1 -0.033665625 0.000116666666667 -0.008859375 0.223888
158 1 -0.033665625 0.000116666666667 -0.007678125 0.316051
159 1 -0.033665625 0.000116666666667 -0.006496875 0.254898
160 1 -0.033665625 0.000116666666667 -0.005315625 0.336432
161 1 -0.033665625 0.000116666666667 -0.004134375 0.27914
162 1 -0.033665625 0.000116666666667 -0.002953125 0.352264
163 1 -0.033665625 0.000116666666667 -0.001771875 0.300729
164 1 -0.033665625 0.000116666666667 -0.000590625 0.36599
165 1 -0.033665625 0.000116666666667 0.000590625 0.315508
166 1 -0.033665625 0.000116666666667 0.001771875 0.372916
167 1 -0.033665625 0.000116666666667 0.002953125 0.318735
168 1 -0.033665625 0.000116666666667 0.004134375 0.368188
169 1 -0.033665625 0.000116666666667 0.005315625 0.305117
170 1 -0.033665625 0.000116666666667 0.006496875 0.348477
171 1 -0.033665625 0.000116666666667 0.007678125 0.276712
172 1 -0.033665625 0.000116666666667 0.008859375 0.317829
173 1 -0.033665625 0.000116666666667 0.010040625 0.23589
174 1 -0.033665625 0.000116666666667 0.011221875 0.27629
175 1 -0.033665625 0.000116666666667 0.012403125 0.188618
176 1 -0.033665625 0.000116666666667 0.013584375 0.233337
177 1 -0.032484375 -0.00261666666667 -0.018309375 0.112903
178 1 -0.032484375 -0.00261666666667 -0.017128125 0.159767
179 1 -0.032484375 -0.00261666666667 -0.015946875 0.169763
180 1 -0.032484375 -0.00261666666667 -0.014765625 0.210945
181 1 -0.032484375 -0.00261666666667 -0.013584375 0.239806
182 1 -0.032484375 -0.00261666666667 -0.012403125 0.26503
183 1 -0.032484375 -0.00261666666667 -0.011221875 0.306589
184 1 -0.032484375 -0.00261666666667 -0.010040625 0.303268
185 1 -0.032484375 -0.00261666666667 -0.008859375 0.356798
186 1 -0.032484375 -0.00261666666667 -0.007678125 0.330309
187 1 -0.032484375 -0.00261666666667 -0.006496875 0.389947
188 1 -0.032484375 -0.00261666666667 -0.005315625 0.347805
189 1 -0.032484375 -0.00261666666667 -0.004134375 0.413559
190 1 -0.032484375 -0.00261666666667 -0.002953125 0.362839
191 1 -0.032484375 -0.00261666666667 -0.001771875 0.432621
192 1 -0.032484375 -0.00261666666667 -0.000590625 0.372986
193 1 -0.032484375 -0.00261666666667 0.000590625 0.448194
194 1 -0.032484375 -0.00261666666667 0.001771875 0.379665
195 1 -0.032484375 -0.00261666666667 0.002953125 0.450886
196 1 -0.032484375 -0.00261666666667 0.004134375 0.372068
197 1 -0.032484375 -0.00261666666667 0.005315625 0.436334
198 1 -0.032484375 -0.00261666666667 0.006496875 0.348985
199 1 -0.032484375 -0.00261666666667 0.007678125 0.402359
200 1 -0.032484375 -0.00261666666667 0.008859375 0.310649
201 1 -0.032484375 -0.00261666666667 0.010040625 0.351289
202 1 -0.032484375 -0.00261666666667 0.011221875 0.263036
203 1 -0.032484375 -0.00261666666667 0.012403125 0.281512
204 1 -0.032484375 -0.00261666666667 0.013584375 0.209336
205 1 -0.032484375 -0.00261666666667 0.014765625 0.209048
206 1 -0.032484375 -0.00261666666667 0.015946875 0.161933
207 1 -0.032484375 -0.00261666666667 0.017128125 0.148413
208 1 -0.032484375 -0.00261666666667 0.018309375 0.127494
209 1 -0.032484375 -0.00125 -0.018309375 0.112903
210 1 -0.032484375 -0.00125 -0.017128125 0.159767
211 1 -0.032484375 -0.00125 -0.015946875 0.169763
212 1 -0.032484375 -0.00125 -0.014765625 0.210945
213 1 -0.032484375 -0.00125 -0.013584375 0.239806
214 1 -0.032484375 -0.00125 -0.012403125 0.26503
215 1 -0.032484375 -0.00125 -0.011221875 0.306589
216 1 -0.032484375 -0.00125 -0.010040625 0.303268
217 1 -0.032484375 -0.00125 -0.008859375 0.356798
218 1 -0.032484375 -0.00125 -0.007678125 0.330309
219 1 -0.032484375 -0.00125 -0.006496875 0.389947
220 1 -0.032484375 -0.00125 -0.005315625 0.347805
221 1 -0.032484375 -0.00125 -0.004134375 0.413559
222 1 -0.032484375 -0.00125 -0.002953125 0.362839
223 1 -0.032484375 -0.00125 -0.001771875 0.432621
224 1 -0.032484375 -0.00125 -0.000590625 0.372986
225 1 -0.032484375 -0.00125 0.000590625 0.448194
226 1 -0.032484375 -0.00125 0.001771875 0.379665
227 1 -0.032484375 -0.00125 0.002953125 0.450886
228 1 -0.032484375 -0.00125 0.004134375 0.372068
229 1 -0.032484375 -0.00125 0.005315625 0.436334
230 1 -0.032484375 -0.00125 0.006496875 0.348985
231 1 -0.032484375 -0.00125 0.007678125 0.402359
232 1 -0.032484375 -0.00125 0.008859375 0.310649
233 1 -0.032484375 -0.00125 0.010040625 0.351289
234 1 -0.032484375 -0.00125 0.011221875 0.263036
235 1 -0.032484375 -0.00125 0.012403125 0.281512
236 1 -0.032484375 -0.00125 0.013584375 0.209336
237 1 -0.032484375 -0.00125 0.014765625 0.209048
238 1 -0.032484375 -0.00125 0.015946875 0.161933
239 1 -0.032484375 -0.00125 0.017128125 0.148413
240 1 -0.032484375 -0.00125 0.018309375 0.127494
241 1 -0.032484375 0.000116666666667 -0.018309375 0.112903
242 1 -0.032484375 0.000116666666667 -0.017128125 0.159767
243 1 -0.032484375 0.000116666666667 -0.015946875 0.169763
244 1 -0.032484375 0.000116666666667 -0.014765625 0.210945
245 1 -0.032484375 0.000116666666667 -0.013584375 0.239806
246 1 -0.032484375 0.000116666666667 -0.012403125 0.26503
247 1 -0.032484375 0.000116666666667 -0.011221875 0.306589
248 1 -0.032484375 0.000116666666667 -0.010040625 0.303268
249 1 -0.032484375 0.000116666666667 -0.008859375 0.356798
250 1 -0.032484375 0.000116666666667 -0.007678125 0.330309
251 1 -0.032484375 0.000116666666667 -0.006496875 0.389947
252 1 -0.032484375 0.000116666666667 -0.005315625 0.347805
253 1 -0.032484375 0.000116666666667 -0.004134375 0.413559
254 1 -0.032484375 0.000116666666667 -0.002953125 0.362839
255 1 -0.032484375 0.000116666666667 -0.001771875 0.432621
256 1 -0.032484375 0.000116666666667 -0.000590625 0.372986
257 1 -0.032484375 0.000116666666667 0.000590625 0.448194
258 1 -0.032484375 0.000116666666667 0.001771875 0.379665
259 1 -0.032484375 0.000116666666667 0.002953125 0.450886
260 1 -0.032484375 0.000116666666667 0.004134375 0.372068
261 1 -0.032484375 0.000116666666667 0.005315625 0.436334
262 1 -0.032484375 0.000116666666667 0.006496875 0.348985
263 1 -0.032484375 0.000116666666667 0.007678125 0.402359
264 1 -0.032484375 0.000116666666667 0.008859375 0.310649
265 1 -0.032484375 0.000116666666667 0.010040625 0.351289
266 1 -0.032484375 0.000116666666667 0.011221875 0.263036
267 1 -0.032484375 0.000116666666667 0.012403125 0.281512
268 1 -0.032484375 0.000116666666667 0.013584375 0.209336
269 1 -0.032484375 0.000116666666667 0.014765625 0.209048
270 1 -0.032484375 0.000116666666667 0.015946875 0.161933
271 1 -0.032484375 0.000116666666667 0.017128125 0.148413
272 1 -0.032484375 0.000116666666667 0.018309375 0.127494
273 1 -0.031303125 -0.00261666666667 -0.019490625 0.220488
274 1 -0.031303125 -0.00261666666667 -0.018309375 0.18342
275 1 -0.031303125 -0.00261666666667 -0.017128125 0.292181
276 1 -0.031303125 -0.00261666666667 -0.015946875 0.278564
277 1 -0.031303125 -0.00261666666667 -0.014765625 0.368972
278 1 -0.031303125 -0.00261666666667 -0.013584375 0.377496
279 1 -0.031303125 -0.00261666666667 -0.012403125 0.43502
280 1 -0.031303125 -0.00261666666667 -0.011221875 0.4603
281 1 -0.031303125 -0.00261666666667 -0.010040625 0.47732
282 1 -0.031303125 -0.00261666666667 -0.008859375 0.511488
283 1 -0.031303125 -0.00261666666667 -0.007678125 0.500313
284 1 -0.031303125 -0.00261666666667 -0.006496875 0.541312
285 1 -0.031303125 -0.00261666666667 -0.005315625 0.514744
286 1 -0.031303125 -0.00261666666667 -0.004134375 0.557482
287 1 -0.031303125 -0.00261666666667 -0.002953125 0.523823
288 1 -0.031303125 -0.00261666666667 -0.001771875 0.569509
289 1 -0.031303125 -0.00261666666667 -0.000590625 0.531323
290 1 -0.031303125 -0.00261666666667 0.000590625 0.575948
291 1 -0.031303125 -0.00261666666667 0.001771875 0.535321
292 1 -0.031303125 -0.00261666666667 0.002953125 0.577732
293 1 -0.031303125 -0.00261666666667 0.004134375 0.532004
294 1 -0.031303125 -0.00261666666667 0.005315625 0.566558
295 1 -0.031303125 -0.00261666666667 0.006496875 0.514477
296 1 -0.031303125 -0.00261666666667 0.007678125 0.53519
297 1 -0.031303125 -0.00261666666667 0.008859375 0.481917
298 1 -0.031303125 -0.00261666666667 0.010040625 0.480304
299 1 -0.031303125 -0.00261666666667 0.011221875 0.431818
300 1 -0.031303125 -0.00261666666667 0.012403125 0.401949
301 1 -0.031303125 -0.00261666666667 0.013584375 0.363625
302 1 -0.031303125 -0.00261666666667 0.014765625 0.308855
303 1 -0.031303125 -0.00261666666667 0.015946875 0.290823
304 1 -0.031303125 -0.00261666666667 0.017128125 0.224092
305 1 -0.031303125 -0.00261666666667 0.018309375 0.229109
306 1 -0.031303125 -0.00261666666667 0.019490625 0.162751
307 1 -0.031303125 -0.00125 -0.019490625 0.220488
308 1 -0.031303125 -0.00125 -0.018309375 0.18342
309 1 -0.031303125 -0.00125 -0.017128125 0.292181
310 1 -0.031303125 -0.00125 -0.015946875 0.278564
311 1 -0.031303125 -0.00125 -0.014765625 0.368972
312 1 -0.031303125 -0.00125 -0.013584375 0.377496
313 1 -0.031303125 -0.00125 -0.012403125 0.43502
314 1 -0.031303125 -0.00125 -0.011221875 0.4603
315 1 -0.031303125 -0.00125 -0.010040625 0.47732
316 1 -0.031303125 -0.00125 -0.008859375 0.511488
317 1 -0.031303125 -0.00125 -0.007678125 0.500313
318 1 -0.031303125 -0.00125 -0.006496875 0.541312
319 1 -0.031303125 -0.00125 -0.005315625 0.514744
320 1 -0.031303125 -0.00125 -0.004134375 0.557482
321 1 -0.031303125 -0.00125 -0.002953125 0.523823
322 1 -0.031303125 -0.00125 -0.001771875 0.569509
323 1 -0.031303125 -0.00125 -0.000590625 0.531323
324 1 -0.031303125 -0.00125 0.000590625 0.575948
325 1 -0.031303125 -0.00125 0.001771875 0.535321
326 1 -0.031303125 -0.00125 0.002953125 0.577732
327 1 -0.031303125 -0.00125 0.004134375 0.532004
328 1 -0.031303125 -0.00125 0.005315625 0.566558
329 1 -0.031303125 -0.00125 0.006496875 0.514477
330 1 -0.031303125 -0.00125 0.007678125 0.53519
331 1 -0.031303125 -0.00125 0.008859375 0.481917
332 1 -0.031303125 -0.00125 0.010040625 0.480304
333 1 -0.031303125 -0.00125 0.011221875 0.431818
334 1 -0.031303125 -0.00125 0.012403125 0.401949
335 1 -0.031303125 -0.00125 0.013584375 0.363625
336 1 -0.031303125 -0.00125 0.014765625 0.308855
337 1 -0.031303125 -0.00125 0.015946875 0.290823
338 1 -0.031303125 -0.00125 0.017128125 0.224092
339 1 -0.031303125 -0.00125 0.018309375 0.229109
340 1 -0.031303125 -0.00125 0.019490625 0.162751
341 1 -0.031303125 0.000116666666667 -0.019490625 0.220488
342 1 -0.031303125 0.000116666666667 -0.018309375 0.18342
343 1 -0.031303125 0.000116666666667 -0.017128125 0.292181
344 1 -0.031303125 0.000116666666667 -0.015946875 0.278564
345 1 -0.031303125 0.000116666666667 -0.014765625 0.368972
346 1 -0.031303125 0.000116666666667 -0.013584375 0.377496
347 1 -0.031303125 0.000116666666667 -0.012403125 0.43502
348 1 -0.031303125 0.000116666666667 -0.011221875 0.4603
349 1 -0.031303125 0.000116666666667 -0.010040625 0.47732
350 1 -0.031303125 0.000116666666667 -0.008859375 0.511488
351 1 -0.031303125 0.000116666666667 -0.007678125 0.500313
352 1 -0.031303125 0.000116666666667 -0.006496875 0.541312
353 1 -0.031303125 0.000116666666667 -0.005315625 0.514744
354 1 -0.031303125 0.000116666666667 -0.004134375 0.557482
355 1 -0.031303125 0.000116666666667 -0.002953125 0.523823
356 1 -0.031303125 0.000116666666667 -0.001771875 0.569509
357 1 -0.031303125 0.000116666666667 -0.000590625 0.531323
358 1 -0.031303125 0.000116666666667 0.000590625 0.575948
359 1 -0.031303125 0.000116666666667 0.001771875 0.535321
360 1 -0.031303125 0.000116666666667 0.002953125 0.577732
361 1 -0.031303125 0.000116666666667 0.004134375 0.532004
362 1 -0.031303125 0.000116666666667 0.005315625 0.566558
363 1 -0.031303125 0.000116666666667 0.006496875 0.514477
364 1 -0.031303125 0.000116666666667 0.007678125 0.53519
365 1 -0.031303125 0.000116666666667 0.008859375 0.481917
366 1 -0.031303125 0.000116666666667 0.010040625 0.480304
367 1 -0.031303125 0.000116666666667 0.011221875 0.431818
368 1 -0.031303125 0.000116666666667 0.012403125 0.401949
369 1 -0.031303125 0.000116666666667 0.013584375 0.363625
370 1 -0.031303125 0.000116666666667 0.014765625 0.308855
371 1 -0.031303125 0.000116666666667 0.015946875 0.290823
372 1 -0.031303125 0.000116666666667 0.017128125 0.224092
373 1 -0.031303125 0.000116666666667 0.018309375 0.229109
374 1 -0.031303125 0.000116666666667 0.019490625 0.162751
375 1 -0.030121875 -0.00261666666667 -0.020671875 0.163203
376 1 -0.030121875 -0.00261666666667 -0.019490625 0.217445
377 1 -0.030121875 -0.00261666666667 -0.018309375 0.257013
378 1 -0.030121875 -0.00261666666667 -0.017128125 0.305156
379 1 -0.030121875 -0.00261666666667 -0.015946875 0.358967
380 1 -0.030121875 -0.00261666666667 -0.014765625 0.389243
381 1 -0.030121875 -0.00261666666667 -0.013584375 0.455757
382 1 -0.030121875 -0.00261666666667 -0.012403125 0.454546
383 1 -0.030121875 -0.00261666666667 -0.011221875 0.521025
384 1 -0.030121875 -0.00261666666667 -0.010040625 0.484266
385 1 -0.030121875 -0.00261666666667 -0.008859375 0.549144
386 1 -0.030121875 -0.00261666666667 -0.007678125 0.499066
387 1 -0.030121875 -0.00261666666667 -0.006496875 0.559318
388 1 -0.030121875 -0.00261666666667 -0.005315625 0.505486
389 1 -0.030121875 -0.00261666666667 -0.004134375 0.562827
390 1 -0.030121875 -0.00261666666667 -0.002953125 0.511476
391 1 -0.030121875 -0.00261666666667 -0.001771875 0.565524
392 1 -0.030121875 -0.00261666666667 -0.000590625 0.516763
393 1 -0.030121875 -0.00261666666667 0.000590625 0.571796
394 1 -0.030121875 -0.00261666666667 0.001771875 0.522719
395 1 -0.030121875 -0.00261666666667 0.002953125 0.579916
396 1 -0.030121875 -0.00261666666667 0.004134375 0.517792
397 1 -0.030121875 -0.00261666666667 0.005315625 0.582485
398 1 -0.030121875 -0.00261666666667 0.006496875 0.50366
399 1 -0.030121875 -0.00261666666667 0.007678125 0.56956
400 1 -0.030121875 -0.00261666666667 0.008859375 0.471978
401 1 -0.030121875 -0.00261666666667 0.010040625 0.538227
402 1 -0.030121875 -0.00261666666667 0.011221875 0.424995
403 1 -0.030121875 -0.00261666666667 0.012403125 0.465994
404 1 -0.030121875 -0.00261666666667 0.013584375 0.348528
405 1 -0.030121875 -0.00261666666667 0.014765625 0.367735
406 1 -0.030121875 -0.00261666666667 0.015946875 0.268217
407 1 -0.030121875 -0.00261666666667 0.017128125 0.270643
408 1 -0.030121875 -0.00261666666667 0.018309375 0.205215
409 1 -0.030121875 -0.00261666666667 0.019490625 0.197618
410 1 -0.030121875 -0.00261666666667 0.020671875 0.163851
411 1 -0.030121875 -0.00125 -0.020671875 0.163203
412 1 -0.030121875 -0.00125 -0.019490625 0.217445
413 1 -0.030121875 -0.00125 -0.018309375 0.257013
414 1 -0.030121875 -0.00125 -0.017128125 0.305156
415 1 -0.030121875 -0.00125 -0.015946875 0.358967
416 1 -0.030121875 -0.00125 -0.014765625 0.389243
417 1 -0.030121875 -0.00125 -0.013584375 0.455757
418 1 -0.030121875 -0.00125 -0.012403125 0.454546
419 1 -0.030121875 -0.00125 -0.011221875 0.521025
420 1 -0.030121875 -0.00125 -0.010040625 0.484266
421 1 -0.030121875 -0.00125 -0.008859375 0.549144
422 1 -0.030121875 -0.00125 -0.007678125 0.499066
423 1 -0.030121875 -0.00125 -0.006496875 0.559318
424 1 -0.030121875 -0.00125 -0.005315625 0.505486
425 1 -0.030121875 -0.00125 -0.004134375 0.562827
426 1 -0.030121875 -0.00125 -0.002953125 0.511476
427 1 -0.030121875 -0.00125 -0.001771875 0.565524
428 1 -0.030121875 -0.00125 -0.000590625 0.516763
429 1 -0.030121875 -0.00125 0.000590625 0.571796
430 1 -0.030121875 -0.00125 0.001771875 0.522719
431 1 -0.030121875 -0.00125 0.002953125 0.579916
432 1 -0.030121875 -0.00125 0.004134375 0.517792
433 1 -0.030121875 -0.00125 0.005315625 0.582485
434 1 -0.030121875 -0.00125 0.006496875 0.50366
435 1 -0.030121875 -0.00125 0.007678125 0.56956
436 1 -0.030121875 -0.00125 0.008859375 0.471978
437 1 -0.030121875 -0.00125 0.010040625 0.538227
438 1 -0.030121875 -0.00125 0.011221875 0.424995
439 1 -0.030121875 -0.00125 0.012403125 0.465994
440 1 -0.030121875 -0.00125 0.013584375 0.348528
441 1 -0.030121875 -0.00125 0.014765625 0.367735
442 1 -0.030121875 -0.00125 0.015946875 0.268217
443 1 -0.030121875 -0.00125 0.017128125 0.270643
444 1 -0.030121875 -0.00125 0.018309375 0.205215
445 1 -0.030121875 -0.00125 0.019490625 0.197618
446 1 -0.030121875 -0.00125 0.020671875 0.163851
447 1 -0.030121875 0.000116666666667 -0.020671875 0.163203
448 1 -0.030121875 0.000116666666667 -0.019490625 0.217445
449 1 -0.030121875 0.000116666666667 -0.018309375 0.257013
450 1 -0.030121875 0.000116666666667 -0.017128125 0.305156
451 1 -0.030121875 0.000116666666667 -0.015946875 0.358967
452 1 -0.030121875 0.000116666666667 -0.014765625 0.389243
453 1 -0.030121875 0.000116666666667 -0.013584375 0.455757
454 1 -0.030121875 0.000116666666667 -0.012403125 0.454546
455 1 -0.030121875 0.000116666666667 -0.011221875 0.521025
456 1 -0.030121875 0.000116666666667 -0.010040625 0.484266
457 1 -0.030121875 0.000116666666667 -0.008859375 0.549144
458 1 -0.030121875 0.000116666666667 -0.007678125 0.499066
459 1 -0.030121875 0.000116666666667 -0.006496875 0.559318
460 1 -0.030121875 0.000116666666667 -0.005315625 0.505486
461 1 -0.030121875 0.000116666666667 -0.004134375 0.562827
462 1 -0.030121875 0.000116666666667 -0.002953125 0.511476
463 1 -0.030121875 0.000116666666667 -0.001771875 0.565524
464 1 -0.030121875 0.000116666666667 -0.000590625 0.516763
465 1 -0.030121875 0.000116666666667 0.000590625 0.571796
466 1 -0.030121875 0.000116666666667 0.001771875 0.522719
467 1 -0.030121875 0.000116666666667 0.002953125 0.579916
468 1 -0.030121875 0.000116666666667 0.004134375 0.517792
469 1 -0.030121875 0.000116666666667 0.005315625 0.582485
470 1 -0.030121875 0.000116666666667 0.006496875 0.50366
471 1 -0.030121875 0.000116666666667 0.007678125 0.56956
472 1 -0.030121875 0.000116666666667 0.008859375 0.471978
473 1 -0.030121875 0.000116666666667 0.010040625 0.538227
474 1 -0.030121875 0.000116666666667 0.011221875 0.424995
475 1 -0.030121875 0.000116666666667 0.012403125 0.465994
476 1 -0.030121875 0.000116666666667 0.013584375 0.348528
477 1 -0.030121875 0.000116666666667 0.014765625 0.367735
478 1 -0.030121875 0.000116666666667 0.015946875 0.268217
479 1 -0.030121875 0.000116666666667 0.017128125 0.270643
480 1 -0.030121875 0.000116666666667 0.018309375 0.205215
481 1 -0.030121875 0.000116666666667 0.019490625 0.197618
482 1 -0.030121875 0.000116666666667 0.020671875 0.163851
483 1 -0.028940625 -0.00261666666667 -0.021853125 0.238353
484 1 -0.028940625 -0.00261666666667 -0.020671875 0.209613
485 1 -0.028940625 -0.00261666666667 -0.019490625 0.326262
486 1 -0.028940625 -0.00261666666667 -0.018309375 0.327169
487 1 -0.028940625 -0.00261666666667 -0.017128125 0.417716
488 1 -0.028940625 -0.00261666666667 -0.015946875 0.450551
489 1 -0.028940625 -0.00261666666667 -0.014765625 0.492667
490 1 -0.028940625 -0.00261666666667 -0.013584375 0.540813
491 1 -0.028940625 -0.00261666666667 -0.012403125 0.532086
492 1 -0.028940625 -0.00261666666667 -0.011221875 0.577741
493 1 -0.028940625 -0.00261666666667 -0.010040625 0.544924
494 1 -0.028940625 -0.00261666666667 -0.008859375 0.579602
495 1 -0.028940625 -0.00261666666667 -0.007678125 0.547716
496 1 -0.028940625 -0.00261666666667 -0.006496875 0.576771
497 1 -0.028940625 -0.00261666666667 -0.005315625 0.549744
498 1 -0.028940625 -0.00261666666667 -0.004134375 0.572611
499 1 -0.028940625 -0.00261666666667 -0.002953125 0.550394
500 1 -0.028940625 -0.00261666666667 -0.001771875 0.573631
501 1 -0.028940625 -0.00261666666667 -0.000590625 0.555839
502 1 -0.028940625 -0.00261666666667 0.000590625 0.579703
503 1 -0.028940625 -0.00261666666667 0.001771875 0.561341
504 1 -0.028940625 -0.00261666666667 0.002953125 0.588753
505 1 -0.028940625 -0.00261666666667 0.004134375 0.563115
506 1 -0.028940625 -0.00261666666667 0.005315625 0.594458
507 1 -0.028940625 -0.00261666666667 0.006496875 0.5586
508 1 -0.028940625 -0.00261666666667 0.007678125 0.594504
509 1 -0.028940625 -0.00261666666667 0.008859375 0.544692
510 1 -0.028940625 -0.00261666666667 0.010040625 0.578003
511 1 -0.028940625 -0.00261666666667 0.011221875 0.51616
512 1 -0.028940625 -0.00261666666667 0.012403125 0.529216
513 1 -0.028940625 -0.00261666666667 0.013584375 0.456644
514 1 -0.028940625 -0.00261666666667 0.014765625 0.440673
515 1 -0.028940625 -0.00261666666667 0.015946875 0.383693
516 1 -0.028940625 -0.00261666666667 0.017128125 0.339718
517 1 -0.028940625 -0.00261666666667 0.018309375 0.307351
518 1 -0.028940625 -0.00261666666667 0.019490625 0.256294
519 1 -0.028940625 -0.00261666666667 0.020671875 0.252236
520 1 -0.028940625 -0.00261666666667 0.021853125 0.200704
521 1 -0.028940625 -0.00125 -0.021853125 0.238353
522 1 -0.028940625 -0.00125 -0.020671875 0.209613
523 1 -0.028940625 -0.00125 -0.019490625 0.326262
524 1 -0.028940625 -0.00125 -0.018309375 0.327169
525 1 -0.028940625 -0.00125 -0.017128125 0.417716
526 1 -0.028940625 -0.00125 -0.015946875 0.450551
527 1 -0.028940625 -0.00125 -0.014765625 0.492667
528 1 -0.028940625 -0.00125 -0.013584375 0.540813
529 1 -0.028940625 -0.00125 -0.012403125 0.532086
530 1 -0.028940625 -0.00125 -0.011221875 0.577741
531 1 -0.028940625 -0.00125 -0.010040625 0.544924
532 1 -0.028940625 -0.00125 -0.008859375 0.579602
533 1 -0.028940625 -0.00125 -0.007678125 0.547716
534 1 -0.028940625 -0.00125 -0.006496875 0.576771
535 1 -0.028940625 -0.00125 -0.005315625 0.549744
536 1 -0.028940625 -0.00125 -0.004134375 0.572611
537 1 -0.028940625 -0.00125 -0.002953125 0.550394