ITEM: TIMESTEP
0
ITEM: NUMBER OF ATOMS
9240
ITEM: BOX BOUNDS ss ss ss
-3.7007399999999996e-02 3.7007399999999996e-02
-2.0002499999999999e-03 2.5000000000000004e-07
-3.7007399999999996e-02 3.7007399999999996e-02
ITEM: ATOMS id type x y z c_1
0 1 -0.037209375 -0.00261666666667 -0.000590625 0.372152
1 1 -0.037209375 -0.00125 -0.000590625 0.372152
2 1 -0.037209375 0.000116666666667 -0.000590625 0.372152
3 1 -0.036028125 -0.00261666666667 -0.007678125 0.462201
4 1 -0.036028125 -0.00261666666667 -0.006496875 0.338714
5 1 -0.036028125 -0.00261666666667 -0.005315625 0.467862
6 1 -0.036028125 -0.00261666666667 -0.004134375 0.34085
7 1 -0.036028125 -0.00261666666667 -0.002953125 0.471188
8 1 -0.036028125 -0.00261666666667 -0.001771875 0.342865
9 1 -0.036028125 -0.00261666666667 -0.000590625 0.473624
10 1 -0.036028125 -0.00261666666667 0.000590625 0.343638
11 1 -0.036028125 -0.00261666666667 0.001771875 0.473201
12 1 -0.036028125 -0.00261666666667 0.002953125 0.342484
13 1 -0.036028125 -0.00261666666667 0.004134375 0.469344
14 1 -0.036028125 -0.00261666666667 0.005315625 0.338397
15 1 -0.036028125 -0.00261666666667 0.006496875 0.462391
16 1 -0.036028125 -0.00261666666667 0.007678125 0.333215
17 1 -0.036028125 -0.00125 -0.007678125 0.462201
18 1 -0.036028125 -0.00125 -0.006496875 0.338714
19 1 -0.036028125 -0.00125 -0.005315625 0.467862
20 1 -0.036028125 -0.00125 -0.004134375 0.34085
21 1 -0.036028125 -0.00125 -0.002953125 0.471188
22 1 -0.036028125 -0.00125 -0.001771875 0.342865
23 1 -0.036028125 -0.00125 -0.000590625 0.473624
24 1 -0.036028125 -0.00125 0.000590625 0.343638
25 1 -0.036028125 -0.00125 0.001771875 0.473201
26 1 -0.036028125 -0.00125 0.002953125 0.342484
27 1 -0.036028125 -0.00125 0.004134375 0.469344
28 1 -0.036028125 -0.00125 0.005315625 0.338397
29 1 -0.036028125 -0.00125 0.006496875 0.462391
30 1 -0.036028125 -0.00125 0.007678125 0.333215
31 1 -0.036028125 0.000116666666667 -0.007678125 0.462201
32 1 -0.036028125 0.000116666666667 -0.006496875 0.338714
33 1 -0.036028125 0.000116666666667 -0.005315625 0.467862
34 1 -0.036028125 0.000116666666667 -0.004134375 0.34085
35 1 -0.036028125 0.000116666666667 -0.002953125 0.471188
36 1 -0.036028125 0.000116666666667 -0.001771875 0.342865
37 1 -0.036028125 0.000116666666667 -0.000590625 0.473624
38 1 -0.036028125 0.000116666666667 0.000590625 0.343638
39 1 -0.036028125 0.000116666666667 0.001771875 0.473201
40 1 -0.036028125 0.000116666666667 0.002953125 0.342484
41 1 -0.036028125 0.000116666666667 0.004134375 0.469344
42 1 -0.036028125 0.000116666666667 0.005315625 0.338397
43 1 -0.036028125 0.000116666666667 0.006496875 0.462391
44 1 -0.036028125 0.000116666666667 0.007678125 0.333215
45 1 -0.034846875 -0.00261666666667 -0.011221875 0.317103
46 1 -0.034846875 -0.00261666666667 -0.010040625 0.309947
47 1 -0.034846875 -0.00261666666667 -0.008859375 0.333856
48 1 -0.034846875 -0.00261666666667 -0.007678125 0.318433
49 1 -0.034846875 -0.00261666666667 -0.006496875 0.346943
50 1 -0.034846875 -0.00261666666667 -0.005315625 0.323936
51 1 -0.034846875 -0.00261666666667 -0.004134375 0.358583
52 1 -0.034846875 -0.00261666666667 -0.002953125 0.328469
53 1 -0.034846875 -0.00261666666667 -0.001771875 0.36729
54 1 -0.034846875 -0.00261666666667 -0.000590625 0.330186
55 1 -0.034846875 -0.00261666666667 0.000590625 0.372236
56 1 -0.034846875 -0.00261666666667 0.001771875 0.329617
57 1 -0.034846875 -0.00261666666667 0.002953125 0.37248
58 1 -0.034846875 -0.00261666666667 0.004134375 0.322682
59 1 -0.034846875 -0.00261666666667 0.005315625 0.367832
60 1 -0.034846875 -0.00261666666667 0.006496875 0.31273
61 1 -0.034846875 -0.00261666666667 0.007678125 0.357217
62 1 -0.034846875 -0.00261666666667 0.008859375 0.298979
63 1 -0.034846875 -0.00261666666667 0.010040625 0.342434
64 1 -0.034846875 -0.00261666666667 0.011221875 0.284475
65 1 -0.034846875 -0.00125 -0.011221875 0.317103
66 1 -0.034846875 -0.00125 -0.010040625 0.309947
67 1 -0.034846875 -0.00125 -0.008859375 0.333856
68 1 -0.034846875 -0.00125 -0.007678125 0.318433
69 1 -0.034846875 -0.00125 -0.006496875 0.346943
70 1 -0.034846875 -0.00125 -0.005315625 0.323936
71 1 -0.034846875 -0.00125 -0.004134375 0.358583
72 1 -0.034846875 -0.00125 -0.002953125 0.328469
73 1 -0.034846875 -0.00125 -0.001771875 0.36729
74 1 -0.034846875 -0.00125 -0.000590625 0.330186
75 1 -0.034846875 -0.00125 0.000590625 0.372236
76 1 -0.034846875 -0.00125 0.001771875 0.329617
77 1 -0.034846875 -0.00125 0.002953125 0.37248
78 1 -0.034846875 -0.00125 0.004134375 0.322682
79 1 -0.034846875 -0.00125 0.005315625 0.367832
80 1 -0.034846875 -0.00125 0.006496875 0.31273
81 1 -0.034846875 -0.00125 0.007678125 0.357217
82 1 -0.034846875 -0.00125 0.008859375 0.298979
83 1 -0.034846875 -0.00125 0.010040625 0.342434
84 1 -0.034846875 -0.00125 0.011221875 0.284475
85 1 -0.034846875 0.000116666666667 -0.011221875 0.317103
86 1 -0.034846875 0.000116666666667 -0.010040625 0.309947
87 1 -0.034846875 0.000116666666667 -0.008859375 0.333856
88 1 -0.034846875 0.000116666666667 -0.007678125 0.318433
89 1 -0.034846875 0.000116666666667 -0.006496875 0.346943
90 1 -0.034846875 0.000116666666667 -0.005315625 0.323936
91 1 -0.034846875 0.000116666666667 -0.004134375 0.358583
92 1 -0.034846875 0.000116666666667 -0.002953125 0.328469
93 1 -0.034846875 0.000116666666667 -0.001771875 0.36729
94 1 -0.034846875 0.000116666666667 -0.000590625 0.330186
95 1 -0.034846875 0.000116666666667 0.000590625 0.372236
96 1 -0.034846875 0.000116666666667 0.001771875 0.329617
97 1 -0.034846875 0.000116666666667 0.002953125 0.37248
98 1 -0.034846875 0.000116666666667 0.004134375 0.322682
99 1 -0.034846875 0.000116666666667 0.005315625 0.367832
100 1 -0.034846875 0.000116666666667 0.006496875 0.31273
101 1 -0.034846875 0.000116666666667 0.007678125 0.357217
102 1 -0.034846875 0.000116666666667 0.008859375 0.298979
103 1 -0.034846875 0.000116666666667 0.010040625 0.342434
104 1 -0.034846875 0.000116666666667 0.011221875 0.284475
105 1 -0.033665625 -0.00261666666667 -0.013584375 0.325761
106 1 -0.033665625 -0.00261666666667 -0.012403125 0.445741
107 1 -0.033665625 -0.00261666666667 -0.011221875 0.337263
108 1 -0.033665625 -0.00261666666667 -0.010040625 0.46013
109 1 -0.033665625 -0.00261666666667 -0.008859375 0.346314
110 1 -0.033665625 -0.00261666666667 -0.007678125 0.471518
111 1 -0.033665625 -0.00261666666667 -0.006496875 0.353685
112 1 -0.033665625 -0.00261666666667 -0.005315625 0.480462
113 1 -0.033665625 -0.00261666666667 -0.004134375 0.358917
114 1 -0.033665625 -0.00261666666667 -0.002953125 0.485735
115 1 -0.033665625 -0.00261666666667 -0.001771875 0.363625
116 1 -0.033665625 -0.00261666666667 -0.000590625 0.489732
117 1 -0.033665625 -0.00261666666667 0.000590625 0.365489
118 1 -0.033665625 -0.00261666666667 0.001771875 0.489257
119 1 -0.033665625 -0.00261666666667 0.002953125 0.364338
120 1 -0.033665625 -0.00261666666667 0.004134375 0.484121
121 1 -0.033665625 -0.00261666666667 0.005315625 0.358287
122 1 -0.033665625 -0.00261666666667 0.006496875 0.474226
123 1 -0.033665625 -0.00261666666667 0.007678125 0.35054
124 1 -0.033665625 -0.00261666666667 0.008859375 0.461221
125 1 -0.033665625 -0.00261666666667 0.010040625 0.340318
126 1 -0.033665625 -0.00261666666667 0.011221875 0.444574
127 1 -0.033665625 -0.00261666666667 0.012403125 0.328846
128 1 -0.033665625 -0.00261666666667 0.013584375 0.426739
129 1 -0.033665625 -0.00125 -0.013584375 0.325761
130 1 -0.033665625 -0.00125 -0.012403125 0.445741
131 1 -0.033665625 -0.00125 -0.011221875 0.337263
132 1 -0.033665625 -0.00125 -0.010040625 0.46013
133 1 -0.033665625 -0.00125 -0.008859375 0.346314
134 1 -0.033665625 -0.00125 -0.007678125 0.471518
135 1 -0.033665625 -0.00125 -0.006496875 0.353685
136 1 -0.033665625 -0.00125 -0.005315625 0.480462
137 1 -0.033665625 -0.00125 -0.004134375 0.358917
138 1 -0.033665625 -0.00125 -0.002953125 0.485735
139 1 -0.033665625 -0.00125 -0.001771875 0.363625
140 1 -0.033665625 -0.00125 -0.000590625 0.489732
141 1 -0.033665625 -0.00125 0.000590625 0.365489
142 1 -0.033665625 -0.00125 0.001771875 0.489257
143 1 -0.033665625 -0.00125 0.002953125 0.364338
144 1 -0.033665625 -0.00125 0.004134375 0.484121
145 1 -0.033665625 -0.00125 0.005315625 0.358287
146 1 -0.033665625 -0.00125 0.006496875 0.474226
147 1 -0.033665625 -0.00125 0.007678125 0.35054
148 1 -0.033665625 -0.00125 0.008859375 0.461221
149 1 -0.033665625 -0.00125 0.010040625 0.340318
150 1 -0.033665625 -0.00125 0.011221875 0.444574
151 1 -0.033665625 -0.00125 0.012403125 0.328846
152 1 -0.033665625 -0.00125 0.013584375 0.426739
153 1 -0.033665625 0.000116666666667 -0.013584375 0.325761
154 1 -0.033665625 0.000116666666667 -0.012403125 0.445741
155 1 -0.033665625 0.000116666666667 -0.011221875 0.337263
156 1 -0.033665625 0.000116666666667 -0.010040625 0.46013
157 1 -0.033665625 0.000116666666667 -0.008859375 0.346314
158 1 -0.033665625 0.000116666666667 -0.007678125 0.471518
159 1 -0.033665625 0.000116666666667 -0.006496875 0.353685
160 1 -0.033665625 0.000116666666667 -0.005315625 0.480462
161 1 -0.033665625 0.000116666666667 -0.004134375 0.358917
162 1 -0.033665625 0.000116666666667 -0.002953125 0.485735
163 1 -0.033665625 0.000116666666667 -0.001771875 0.363625
164 1 -0.033665625 0.000116666666667 -0.000590625 0.489732
165 1 -0.033665625 0.000116666666667 0.000590625 0.365489
166 1 -0.033665625 0.000116666666667 0.001771875 0.489257
167 1 -0.033665625 0.000116666666667 0.002953125 0.364338
168 1 -0.033665625 0.000116666666667 0.004134375 0.484121
169 1 -0.033665625 0.000116666666667 0.005315625 0.358287
170 1 -0.033665625 0.000116666666667 0.006496875 0.474226
171 1 -0.033665625 0.000116666666667 0.007678125 0.35054
172 1 -0.033665625 0.000116666666667 0.008859375 0.461221
173 1 -0.033665625 0.000116666666667 0.010040625 0.340318
174 1 -0.033665625 0.000116666666667 0.011221875 0.444574
175 1 -0.033665625 0.000116666666667 0.012403125 0.328846
176 1 -0.033665625 0.000116666666667 0.013584375 0.426739
177 1 -0.032484375 -0.00261666666667 -0.018309375 0.234624
178 1 -0.032484375 -0.00261666666667 -0.017128125 0.25131
179 1 -0.032484375 -0.00261666666667 -0.015946875 0.261445
180 1 -0.032484375 -0.00261666666667 -0.014765625 0.274975
181 1 -0.032484375 -0.00261666666667 -0.013584375 0.291714
182 1 -0.032484375 -0.00261666666667 -0.012403125 0.298294
183 1 -0.032484375 -0.00261666666667 -0.011221875 0.318922
184 1 -0.032484375 -0.00261666666667 -0.010040625 0.315553
185 1 -0.032484375 -0.00261666666667 -0.008859375 0.343211
186 1 -0.032484375 -0.00261666666667 -0.007678125 0.3306
187 1 -0.032484375 -0.00261666666667 -0.006496875 0.363046
188 1 -0.032484375 -0.00261666666667 -0.005315625 0.340802
189 1 -0.032484375 -0.00261666666667 -0.004134375 0.380173
190 1 -0.032484375 -0.00261666666667 -0.002953125 0.349132
191 1 -0.032484375 -0.00261666666667 -0.001771875 0.392749
192 1 -0.032484375 -0.00261666666667 -0.000590625 0.353046
193 1 -0.032484375 -0.00261666666667 0.000590625 0.399905
194 1 -0.032484375 -0.00261666666667 0.001771875 0.352997
195 1 -0.032484375 -0.00261666666667 0.002953125 0.400379
196 1 -0.032484375 -0.00261666666667 0.004134375 0.342876
197 1 -0.032484375 -0.00261666666667 0.005315625 0.393415
198 1 -0.032484375 -0.00261666666667 0.006496875 0.328094
199 1 -0.032484375 -0.00261666666667 0.007678125 0.377865
200 1 -0.032484375 -0.00261666666667 0.008859375 0.307412
201 1 -0.032484375 -0.00261666666667 0.010040625 0.356636
202 1 -0.032484375 -0.00261666666667 0.011221875 0.285575
203 1 -0.032484375 -0.00261666666667 0.012403125 0.331786
204 1 -0.032484375 -0.00261666666667 0.013584375 0.261394
205 1 -0.032484375 -0.00261666666667 0.014765625 0.302928
206 1 -0.032484375 -0.00261666666667 0.015946875 0.236363
207 1 -0.032484375 -0.00261666666667 0.017128125 0.273036
208 1 -0.032484375 -0.00261666666667 0.018309375 0.214832
209 1 -0.032484375 -0.00125 -0.018309375 0.234624
210 1 -0.032484375 -0.00125 -0.017128125 0.25131
211 1 -0.032484375 -0.00125 -0.015946875 0.261445
212 1 -0.032484375 -0.00125 -0.014765625 0.274975
213 1 -0.032484375 -0.00125 -0.013584375 0.291714
214 1 -0.032484375 -0.00125 -0.012403125 0.298294
215 1 -0.032484375 -0.00125 -0.011221875 0.318922
216 1 -0.032484375 -0.00125 -0.010040625 0.315553
217 1 -0.032484375 -0.00125 -0.008859375 0.343211
218 1 -0.032484375 -0.00125 -0.007678125 0.3306
219 1 -0.032484375 -0.00125 -0.006496875 0.363046
220 1 -0.032484375 -0.00125 -0.005315625 0.340802
221 1 -0.032484375 -0.00125 -0.004134375 0.380173
222 1 -0.032484375 -0.00125 -0.002953125 0.349132
223 1 -0.032484375 -0.00125 -0.001771875 0.392749
224 1 -0.032484375 -0.00125 -0.000590625 0.353046
225 1 -0.032484375 -0.00125 0.000590625 0.399905
226 1 -0.032484375 -0.00125 0.001771875 0.352997
227 1 -0.032484375 -0.00125 0.002953125 0.400379
228 1 -0.032484375 -0.00125 0.004134375 0.342876
229 1 -0.032484375 -0.00125 0.005315625 0.393415
230 1 -0.032484375 -0.00125 0.006496875 0.328094
231 1 -0.032484375 -0.00125 0.007678125 0.377865
232 1 -0.032484375 -0.00125 0.008859375 0.307412
233 1 -0.032484375 -0.00125 0.010040625 0.356636
234 1 -0.032484375 -0.00125 0.011221875 0.285575
235 1 -0.032484375 -0.00125 0.012403125 0.331786
236 1 -0.032484375 -0.00125 0.013584375 0.261394
237 1 -0.032484375 -0.00125 0.014765625 0.302928
238 1 -0.032484375 -0.00125 0.015946875 0.236363
239 1 -0.032484375 -0.00125 0.017128125 0.273036
240 1 -0.032484375 -0.00125 0.018309375 0.214832
241 1 -0.032484375 0.000116666666667 -0.018309375 0.234624
242 1 -0.032484375 0.000116666666667 -0.017128125 0.25131
243 1 -0.032484375 0.000116666666667 -0.015946875 0.261445
244 1 -0.032484375 0.000116666666667 -0.014765625 0.274975
245 1 -0.032484375 0.000116666666667 -0.013584375 0.291714
246 1 -0.032484375 0.000116666666667 -0.012403125 0.298294
247 1 -0.032484375 0.000116666666667 -0.011221875 0.318922
248 1 -0.032484375 0.000116666666667 -0.010040625 0.315553
249 1 -0.032484375 0.000116666666667 -0.008859375 0.343211
250 1 -0.032484375 0.000116666666667 -0.007678125 0.3306
251 1 -0.032484375 0.000116666666667 -0.006496875 0.363046
252 1 -0.032484375 0.000116666666667 -0.005315625 0.340802
253 1 -0.032484375 0.000116666666667 -0.004134375 0.380173
254 1 -0.032484375 0.000116666666667 -0.002953125 0.349132
255 1 -0.032484375 0.000116666666667 -0.001771875 0.392749
256 1 -0.032484375 0.000116666666667 -0.000590625 0.353046
257 1 -0.032484375 0.000116666666667 0.000590625 0.399905
258 1 -0.032484375 0.000116666666667 0.001771875 0.352997
259 1 -0.032484375 0.000116666666667 0.002953125 0.400379
260 1 -0.032484375 0.000116666666667 0.004134375 0.342876
261 1 -0.032484375 0.000116666666667 0.005315625 0.393415
262 1 -0.032484375 0.000116666666667 0.006496875 0.328094
263 1 -0.032484375 0.000116666666667 0.007678125 0.377865
264 1 -0.032484375 0.000116666666667 0.008859375 0.307412
265 1 -0.032484375 0.000116666666667 0.010040625 0.356636
266 1 -0.032484375 0.000116666666667 0.011221875 0.285575
267 1 -0.032484375 0.000116666666667 0.012403125 0.331786
268 1 -0.032484375 0.000116666666667 0.013584375 0.261394
269 1 -0.032484375 0.000116666666667 0.014765625 0.302928
270 1 -0.032484375 0.000116666666667 0.015946875 0.236363
271 1 -0.032484375 0.000116666666667 0.017128125 0.273036
272 1 -0.032484375 0.000116666666667 0.018309375 0.214832
273 1 -0.031303125 -0.00261666666667 -0.019490625 0.38386
274 1 -0.031303125 -0.00261666666667 -0.018309375 0.295524
275 1 -0.031303125 -0.00261666666667 -0.017128125 0.411324
276 1 -0.031303125 -0.00261666666667 -0.015946875 0.314312
277 1 -0.031303125 -0.00261666666667 -0.014765625 0.436202
278 1 -0.031303125 -0.00261666666667 -0.013584375 0.332958
279 1 -0.031303125 -0.00261666666667 -0.012403125 0.459408
280 1 -0.031303125 -0.00261666666667 -0.011221875 0.351014
281 1 -0.031303125 -0.00261666666667 -0.010040625 0.480066
282 1 -0.031303125 -0.00261666666667 -0.008859375 0.365861
283 1 -0.031303125 -0.00261666666667 -0.007678125 0.496189
284 1 -0.031303125 -0.00261666666667 -0.006496875 0.378519
285 1 -0.031303125 -0.00261666666667 -0.005315625 0.50859
286 1 -0.031303125 -0.00261666666667 -0.004134375 0.387674
287 1 -0.031303125 -0.00261666666667 -0.002953125 0.515483
288 1 -0.031303125 -0.00261666666667 -0.001771875 0.395761
289 1 -0.031303125 -0.00261666666667 -0.000590625 0.519917
290 1 -0.031303125 -0.00261666666667 0.000590625 0.399786
291 1 -0.031303125 -0.00261666666667 0.001771875 0.518178
292 1 -0.031303125 -0.00261666666667 0.002953125 0.399452
293 1 -0.031303125 -0.00261666666667 0.004134375 0.510863
294 1 -0.031303125 -0.00261666666667 0.005315625 0.391274
295 1 -0.031303125 -0.00261666666667 0.006496875 0.496963
296 1 -0.031303125 -0.00261666666667 0.007678125 0.379918
297 1 -0.031303125 -0.00261666666667 0.008859375 0.479164
298 1 -0.031303125 -0.00261666666667 0.010040625 0.364325
299 1 -0.031303125 -0.00261666666667 0.011221875 0.456351
300 1 -0.031303125 -0.00261666666667 0.012403125 0.347023
301 1 -0.031303125 -0.00261666666667 0.013584375 0.432536
302 1 -0.031303125 -0.00261666666667 0.014765625 0.327551
303 1 -0.031303125 -0.00261666666667 0.015946875 0.406395
304 1 -0.031303125 -0.00261666666667 0.017128125 0.308738
305 1 -0.031303125 -0.00261666666667 0.018309375 0.382742
306 1 -0.031303125 -0.00261666666667 0.019490625 0.291325
307 1 -0.031303125 -0.00125 -0.019490625 0.38386
308 1 -0.031303125 -0.00125 -0.018309375 0.295524
309 1 -0.031303125 -0.00125 -0.017128125 0.411324
310 1 -0.031303125 -0.00125 -0.015946875 0.314312
311 1 -0.031303125 -0.00125 -0.014765625 0.436202
312 1 -0.031303125 -0.00125 -0.013584375 0.332958
313 1 -0.031303125 -0.00125 -0.012403125 0.459408
314 1 -0.031303125 -0.00125 -0.011221875 0.351014
315 1 -0.031303125 -0.00125 -0.010040625 0.480066
316 1 -0.031303125 -0.00125 -0.008859375 0.365861
317 1 -0.031303125 -0.00125 -0.007678125 0.496189
318 1 -0.031303125 -0.00125 -0.006496875 0.378519
319 1 -0.031303125 -0.00125 -0.005315625 0.50859
320 1 -0.031303125 -0.00125 -0.004134375 0.387674
321 1 -0.031303125 -0.00125 -0.002953125 0.515483
322 1 -0.031303125 -0.00125 -0.001771875 0.395761
323 1 -0.031303125 -0.00125 -0.000590625 0.519917
324 1 -0.031303125 -0.00125 0.000590625 0.399786
325 1 -0.031303125 -0.00125 0.001771875 0.518178
326 1 -0.031303125 -0.00125 0.002953125 0.399452
327 1 -0.031303125 -0.00125 0.004134375 0.510863
328 1 -0.031303125 -0.00125 0.005315625 0.391274
329 1 -0.031303125 -0.00125 0.006496875 0.496963
330 1 -0.031303125 -0.00125 0.007678125 0.379918
331 1 -0.031303125 -0.00125 0.008859375 0.479164
332 1 -0.031303125 -0.00125 0.010040625 0.364325
333 1 -0.031303125 -0.00125 0.011221875 0.456351
334 1 -0.031303125 -0.00125 0.012403125 0.347023
335 1 -0.031303125 -0.00125 0.013584375 0.432536
336 1 -0.031303125 -0.00125 0.014765625 0.327551
337 1 -0.031303125 -0.00125 0.015946875 0.406395
338 1 -0.031303125 -0.00125 0.017128125 0.308738
339 1 -0.031303125 -0.00125 0.018309375 0.382742
340 1 -0.031303125 -0.00125 0.019490625 0.291325
341 1 -0.031303125 0.000116666666667 -0.019490625 0.38386
342 1 -0.031303125 0.000116666666667 -0.018309375 0.295524
343 1 -0.031303125 0.000116666666667 -0.017128125 0.411324
344 1 -0.031303125 0.000116666666667 -0.015946875 0.314312
345 1 -0.031303125 0.000116666666667 -0.014765625 0.436202
346 1 -0.031303125 0.000116666666667 -0.013584375 0.332958
347 1 -0.031303125 0.000116666666667 -0.012403125 0.459408
348 1 -0.031303125 0.000116666666667 -0.011221875 0.351014
349 1 -0.031303125 0.000116666666667 -0.010040625 0.480066
350 1 -0.031303125 0.000116666666667 -0.008859375 0.365861
351 1 -0.031303125 0.000116666666667 -0.007678125 0.496189
352 1 -0.031303125 0.000116666666667 -0.006496875 0.378519
353 1 -0.031303125 0.000116666666667 -0.005315625 0.50859
354 1 -0.031303125 0.000116666666667 -0.004134375 0.387674
355 1 -0.031303125 0.000116666666667 -0.002953125 0.515483
356 1 -0.031303125 0.000116666666667 -0.001771875 0.395761
357 1 -0.031303125 0.000116666666667 -0.000590625 0.519917
358 1 -0.031303125 0.000116666666667 0.000590625 0.399786
359 1 -0.031303125 0.000116666666667 0.001771875 0.518178
360 1 -0.031303125 0.000116666666667 0.002953125 0.399452
361 1 -0.031303125 0.000116666666667 0.004134375 0.510863
362 1 -0.031303125 0.000116666666667 0.005315625 0.391274
363 1 -0.031303125 0.000116666666667 0.006496875 0.496963
364 1 -0.031303125 0.000116666666667 0.007678125 0.379918
365 1 -0.031303125 0.000116666666667 0.008859375 0.479164
366 1 -0.031303125 0.000116666666667 0.010040625 0.364325
367 1 -0.031303125 0.000116666666667 0.011221875 0.456351
368 1 -0.031303125 0.000116666666667 0.012403125 0.347023
369 1 -0.031303125 0.000116666666667 0.013584375 0.432536
370 1 -0.031303125 0.000116666666667 0.014765625 0.327551
371 1 -0.031303125 0.000116666666667 0.015946875 0.406395
372 1 -0.031303125 0.000116666666667 0.017128125 0.308738
373 1 -0.031303125 0.000116666666667 0.018309375 0.382742
374 1 -0.031303125 0.000116666666667 0.019490625 0.291325
375 1 -0.030121875 -0.00261666666667 -0.020671875 0.22019
376 1 -0.030121875 -0.00261666666667 -0.019490625 0.238579
377 1 -0.030121875 -0.00261666666667 -0.018309375 0.250227
378 1 -0.030121875 -0.00261666666667 -0.017128125 0.269888
379 1 -0.030121875 -0.00261666666667 -0.015946875 0.285841
380 1 -0.030121875 -0.00261666666667 -0.014765625 0.301734
381 1 -0.030121875 -0.00261666666667 -0.013584375 0.324851
382 1 -0.030121875 -0.00261666666667 -0.012403125 0.333413
383 1 -0.030121875 -0.00261666666667 -0.011221875 0.36261
384 1 -0.030121875 -0.00261666666667 -0.010040625 0.360079
385 1 -0.030121875 -0.00261666666667 -0.008859375 0.398195
386 1 -0.030121875 -0.00261666666667 -0.007678125 0.383256
387 1 -0.030121875 -0.00261666666667 -0.006496875 0.427285
388 1 -0.030121875 -0.00261666666667 -0.005315625 0.398967
389 1 -0.030121875 -0.00261666666667 -0.004134375 0.451932
390 1 -0.030121875 -0.00261666666667 -0.002953125 0.41137
391 1 -0.030121875 -0.00261666666667 -0.001771875 0.469649
392 1 -0.030121875 -0.00261666666667 -0.000590625 0.416992
393 1 -0.030121875 -0.00261666666667 0.000590625 0.479865
394 1 -0.030121875 -0.00261666666667 0.001771875 0.416663
395 1 -0.030121875 -0.00261666666667 0.002953125 0.480745
396 1 -0.030121875 -0.00261666666667 0.004134375 0.402147
397 1 -0.030121875 -0.00261666666667 0.005315625 0.47083
398 1 -0.030121875 -0.00261666666667 0.006496875 0.380853
399 1 -0.030121875 -0.00261666666667 0.007678125 0.448597
400 1 -0.030121875 -0.00261666666667 0.008859375 0.35152
401 1 -0.030121875 -0.00261666666667 0.010040625 0.417795
402 1 -0.030121875 -0.00261666666667 0.011221875 0.320531
403 1 -0.030121875 -0.00261666666667 0.012403125 0.382098
404 1 -0.030121875 -0.00261666666667 0.013584375 0.287244
405 1 -0.030121875 -0.00261666666667 0.014765625 0.343657
406 1 -0.030121875 -0.00261666666667 0.015946875 0.255351
407 1 -0.030121875 -0.00261666666667 0.017128125 0.305693
408 1 -0.030121875 -0.00261666666667 0.018309375 0.227593
409 1 -0.030121875 -0.00261666666667 0.019490625 0.268265
410 1 -0.030121875 -0.00261666666667 0.020671875 0.203048
411 1 -0.030121875 -0.00125 -0.020671875 0.22019
412 1 -0.030121875 -0.00125 -0.019490625 0.238579
413 1 -0.030121875 -0.00125 -0.018309375 0.250227
414 1 -0.030121875 -0.00125 -0.017128125 0.269888
415 1 -0.030121875 -0.00125 -0.015946875 0.285841
416 1 -0.030121875 -0.00125 -0.014765625 0.301734
417 1 -0.030121875 -0.00125 -0.013584375 0.324851
418 1 -0.030121875 -0.00125 -0.012403125 0.333413
419 1 -0.030121875 -0.00125 -0.011221875 0.36261
420 1 -0.030121875 -0.00125 -0.010040625 0.360079
421 1 -0.030121875 -0.00125 -0.008859375 0.398195
422 1 -0.030121875 -0.00125 -0.007678125 0.383256
423 1 -0.030121875 -0.00125 -0.006496875 0.427285
424 1 -0.030121875 -0.00125 -0.005315625 0.398967
425 1 -0.030121875 -0.00125 -0.004134375 0.451932
426 1 -0.030121875 -0.00125 -0.002953125 0.41137
427 1 -0.030121875 -0.00125 -0.001771875 0.469649
428 1 -0.030121875 -0.00125 -0.000590625 0.416992
429 1 -0.030121875 -0.00125 0.000590625 0.479865
430 1 -0.030121875 -0.00125 0.001771875 0.416663
431 1 -0.030121875 -0.00125 0.002953125 0.480745
432 1 -0.030121875 -0.00125 0.004134375 0.402147
433 1 -0.030121875 -0.00125 0.005315625 0.47083
434 1 -0.030121875 -0.00125 0.006496875 0.380853
435 1 -0.030121875 -0.00125 0.007678125 0.448597
436 1 -0.030121875 -0.00125 0.008859375 0.35152
437 1 -0.030121875 -0.00125 0.010040625 0.417795
438 1 -0.030121875 -0.00125 0.011221875 0.320531
439 1 -0.030121875 -0.00125 0.012403125 0.382098
440 1 -0.030121875 -0.00125 0.013584375 0.287244
441 1 -0.030121875 -0.00125 0.014765625 0.343657
442 1 -0.030121875 -0.00125 0.015946875 0.255351
443 1 -0.030121875 -0.00125 0.017128125 0.305693
444 1 -0.030121875 -0.00125 0.018309375 0.227593
445 1 -0.030121875 -0.00125 0.019490625 0.268265
446 1 -0.030121875 -0.00125 0.020671875 0.203048
447 1 -0.030121875 0.000116666666667 -0.020671875 0.22019
448 1 -0.030121875 0.000116666666667 -0.019490625 0.238579
449 1 -0.030121875 0.000116666666667 -0.018309375 0.250227
450 1 -0.030121875 0.000116666666667 -0.017128125 0.269888
451 1 -0.030121875 0.000116666666667 -0.015946875 0.285841
452 1 -0.030121875 0.000116666666667 -0.014765625 0.301734
453 1 -0.030121875 0.000116666666667 -0.013584375 0.324851
454 1 -0.030121875 0.000116666666667 -0.012403125 0.333413
455 1 -0.030121875 0.000116666666667 -0.011221875 0.36261
456 1 -0.030121875 0.000116666666667 -0.010040625 0.360079
457 1 -0.030121875 0.000116666666667 -0.008859375 0.398195
458 1 -0.030121875 0.000116666666667 -0.007678125 0.383256
459 1 -0.030121875 0.000116666666667 -0.006496875 0.427285
460 1 -0.030121875 0.000116666666667 -0.005315625 0.398967
461 1 -0.030121875 0.000116666666667 -0.004134375 0.451932
462 1 -0.030121875 0.000116666666667 -0.002953125 0.41137
463 1 -0.030121875 0.000116666666667 -0.001771875 0.469649
464 1 -0.030121875 0.000116666666667 -0.000590625 0.416992
465 1 -0.030121875 0.000116666666667 0.000590625 0.479865
466 1 -0.030121875 0.000116666666667 0.001771875 0.416663
467 1 -0.030121875 0.000116666666667 0.002953125 0.480745
468 1 -0.030121875 0.000116666666667 0.004134375 0.402147
469 1 -0.030121875 0.000116666666667 0.005315625 0.47083
470 1 -0.030121875 0.000116666666667 0.006496875 0.380853
471 1 -0.030121875 0.000116666666667 0.007678125 0.448597
472 1 -0.030121875 0.000116666666667 0.008859375 0.35152
473 1 -0.030121875 0.000116666666667 0.010040625 0.417795
474 1 -0.030121875 0.000116666666667 0.011221875 0.320531
475 1 -0.030121875 0.000116666666667 0.012403125 0.382098
476 1 -0.030121875 0.000116666666667 0.013584375 0.287244
477 1 -0.030121875 0.000116666666667 0.014765625 0.343657
478 1 -0.030121875 0.000116666666667 0.015946875 0.255351
479 1 -0.030121875 0.000116666666667 0.017128125 0.305693
480 1 -0.030121875 0.000116666666667 0.018309375 0.227593
481 1 -0.030121875 0.000116666666667 0.019490625 0.268265
482 1 -0.030121875 0.000116666666667 0.020671875 0.203048
483 1 -0.028940625 -0.00261666666667 -0.021853125 0.382229
484 1 -0.028940625 -0.00261666666667 -0.020671875 0.290741
485 1 -0.028940625 -0.00261666666667 -0.019490625 0.412916
486 1 -0.028940625 -0.00261666666667 -0.018309375 0.314764
487 1 -0.028940625 -0.00261666666667 -0.017128125 0.44375
488 1 -0.028940625 -0.00261666666667 -0.015946875 0.341108
489 1 -0.028940625 -0.00261666666667 -0.014765625 0.475419
490 1 -0.028940625 -0.00261666666667 -0.013584375 0.367651
491 1 -0.028940625 -0.00261666666667 -0.012403125 0.505592
492 1 -0.028940625 -0.00261666666667 -0.011221875 0.39381
493 1 -0.028940625 -0.00261666666667 -0.010040625 0.532227
494 1 -0.028940625 -0.00261666666667 -0.008859375 0.416152
495 1 -0.028940625 -0.00261666666667 -0.007678125 0.552921
496 1 -0.028940625 -0.00261666666667 -0.006496875 0.434839
497 1 -0.028940625 -0.00261666666667 -0.005315625 0.568952
498 1 -0.028940625 -0.00261666666667 -0.004134375 0.447728
499 1 -0.028940625 -0.00261666666667 -0.002953125 0.577401
500 1 -0.028940625 -0.00261666666667 -0.001771875 0.45853
501 1 -0.028940625 -0.00261666666667 -0.000590625 0.58267
502 1 -0.028940625 -0.00261666666667 0.000590625 0.4635
503 1 -0.028940625 -0.00261666666667 0.001771875 0.580246
504 1 -0.028940625 -0.00261666666667 0.002953125 0.462701
505 1 -0.028940625 -0.00261666666667 0.004134375 0.570842
506 1 -0.028940625 -0.00261666666667 0.005315625 0.451365
507 1 -0.028940625 -0.00261666666667 0.006496875 0.552907
508 1 -0.028940625 -0.00261666666667 0.007678125 0.435565
509 1 -0.028940625 -0.00261666666667 0.008859375 0.530218
510 1 -0.028940625 -0.00261666666667 0.010040625 0.414043
511 1 -0.028940625 -0.00261666666667 0.011221875 0.50102
512 1 -0.028940625 -0.00261666666667 0.012403125 0.389922
513 1 -0.028940625 -0.00261666666667 0.013584375 0.470259
514 1 -0.028940625 -0.00261666666667 0.014765625 0.363105
515 1 -0.028940625 -0.00261666666667 0.015946875 0.436723
516 1 -0.028940625 -0.00261666666667 0.017128125 0.337393
517 1 -0.028940625 -0.00261666666667 0.018309375 0.406357
518 1 -0.028940625 -0.00261666666667 0.019490625 0.3145
519 1 -0.028940625 -0.00261666666667 0.020671875 0.378476
520 1 -0.028940625 -0.00261666666667 0.021853125 0.294154
521 1 -0.028940625 -0.00125 -0.021853125 0.382229
522 1 -0.028940625 -0.00125 -0.020671875 0.290741
523 1 -0.028940625 -0.00125 -0.019490625 0.412916
524 1 -0.028940625 -0.00125 -0.018309375 0.314764
525 1 -0.028940625 -0.00125 -0.017128125 0.44375
526 1 -0.028940625 -0.00125 -0.015946875 0.341108
527 1 -0.028940625 -0.00125 -0.014765625 0.475419
528 1 -0.028940625 -0.00125 -0.013584375 0.367651
529 1 -0.028940625 -0.00125 -0.012403125 0.505592
530 1 -0.028940625 -0.00125 -0.011221875 0.39381
531 1 -0.028940625 -0.00125 -0.010040625 0.532227
532 1 -0.028940625 -0.00125 -0.008859375 0.416152
533 1 -0.028940625 -0.00125 -0.007678125 0.552921
534 1 -0.028940625 -0.00125 -0.006496875 0.434839
535 1 -0.028940625 -0.00125 -0.005315625 0.568952
536 1 -0.028940625 -0.00125 -0.004134375 0.447728
537 1 -0.028940625 -0.00125 -0.002953125 0.577401