ITEM: TIMESTEP
0
ITEM: NUMBER OF ATOMS
9240
ITEM: BOX BOUNDS ss ss ss
-3.7007399999999996e-02 3.7007399999999996e-02
-2.0002499999999999e-03 2.5000000000000004e-07
-3.7007399999999996e-02 3.7007399999999996e-02
ITEM: ATOMS id type x y z c_1
0 1 -0.037209375 -0.00261666666667 -0.000590625 0.331817
1 1 -0.037209375 -0.00125 -0.000590625 0.331817
2 1 -0.037209375 0.000116666666667 -0.000590625 0.331817
3 1 -0.036028125 -0.00261666666667 -0.007678125 0.377653
4 1 -0.036028125 -0.00261666666667 -0.006496875 0.277029
5 1 -0.036028125 -0.00261666666667 -0.005315625 0.382589
6 1 -0.036028125 -0.00261666666667 -0.004134375 0.280802
7 1 -0.036028125 -0.00261666666667 -0.002953125 0.381852
8 1 -0.036028125 -0.00261666666667 -0.001771875 0.282063
9 1 -0.036028125 -0.00261666666667 -0.000590625 0.379129
10 1 -0.036028125 -0.00261666666667 0.000590625 0.27923
11 1 -0.036028125 -0.00261666666667 0.001771875 0.370561
12 1 -0.036028125 -0.00261666666667 0.002953125 0.272168
13 1 -0.036028125 -0.00261666666667 0.004134375 0.356136
14 1 -0.036028125 -0.00261666666667 0.005315625 0.258293
15 1 -0.036028125 -0.00261666666667 0.006496875 0.334148
16 1 -0.036028125 -0.00261666666667 0.007678125 0.241153
17 1 -0.036028125 -0.00125 -0.007678125 0.377653
18 1 -0.036028125 -0.00125 -0.006496875 0.277029
19 1 -0.036028125 -0.00125 -0.005315625 0.382589
20 1 -0.036028125 -0.00125 -0.004134375 0.280802
21 1 -0.036028125 -0.00125 -0.002953125 0.381852
22 1 -0.036028125 -0.00125 -0.001771875 0.282063
23 1 -0.036028125 -0.00125 -0.000590625 0.379129
24 1 -0.036028125 -0.00125 0.000590625 0.27923
25 1 -0.036028125 -0.00125 0.001771875 0.370561
26 1 -0.036028125 -0.00125 0.002953125 0.272168
27 1 -0.036028125 -0.00125 0.004134375 0.356136
28 1 -0.036028125 -0.00125 0.005315625 0.258293
29 1 -0.036028125 -0.00125 0.006496875 0.334148
30 1 -0.036028125 -0.00125 0.007678125 0.241153
31 1 -0.036028125 0.000116666666667 -0.007678125 0.377653
32 1 -0.036028125 0.000116666666667 -0.006496875 0.277029
33 1 -0.036028125 0.000116666666667 -0.005315625 0.382589
34 1 -0.036028125 0.000116666666667 -0.004134375 0.280802
35 1 -0.036028125 0.000116666666667 -0.002953125 0.381852
36 1 -0.036028125 0.000116666666667 -0.001771875 0.282063
37 1 -0.036028125 0.000116666666667 -0.000590625 0.379129
38 1 -0.036028125 0.000116666666667 0.000590625 0.27923
39 1 -0.036028125 0.000116666666667 0.001771875 0.370561
40 1 -0.036028125 0.000116666666667 0.002953125 0.272168
41 1 -0.036028125 0.000116666666667 0.004134375 0.356136
42 1 -0.036028125 0.000116666666667 0.005315625 0.258293
43 1 -0.036028125 0.000116666666667 0.006496875 0.334148
44 1 -0.036028125 0.000116666666667 0.007678125 0.241153
45 1 -0.034846875 -0.00261666666667 -0.011221875 0.228713
46 1 -0.034846875 -0.00261666666667 -0.010040625 0.274893
47 1 -0.034846875 -0.00261666666667 -0.008859375 0.249056
48 1 -0.034846875 -0.00261666666667 -0.007678125 0.282968
49 1 -0.034846875 -0.00261666666667 -0.006496875 0.262738
50 1 -0.034846875 -0.00261666666667 -0.005315625 0.284039
51 1 -0.034846875 -0.00261666666667 -0.004134375 0.271254
52 1 -0.034846875 -0.00261666666667 -0.002953125 0.283386
53 1 -0.034846875 -0.00261666666667 -0.001771875 0.274673
54 1 -0.034846875 -0.00261666666667 -0.000590625 0.279781
55 1 -0.034846875 -0.00261666666667 0.000590625 0.271526
56 1 -0.034846875 -0.00261666666667 0.001771875 0.273074
57 1 -0.034846875 -0.00261666666667 0.002953125 0.261754
58 1 -0.034846875 -0.00261666666667 0.004134375 0.258892
59 1 -0.034846875 -0.00261666666667 0.005315625 0.244023
60 1 -0.034846875 -0.00261666666667 0.006496875 0.240432
61 1 -0.034846875 -0.00261666666667 0.007678125 0.219746
62 1 -0.034846875 -0.00261666666667 0.008859375 0.220059
63 1 -0.034846875 -0.00261666666667 0.010040625 0.193737
64 1 -0.034846875 -0.00261666666667 0.011221875 0.20091
65 1 -0.034846875 -0.00125 -0.011221875 0.228713
66 1 -0.034846875 -0.00125 -0.010040625 0.274893
67 1 -0.034846875 -0.00125 -0.008859375 0.249056
68 1 -0.034846875 -0.00125 -0.007678125 0.282968
69 1 -0.034846875 -0.00125 -0.006496875 0.262738
70 1 -0.034846875 -0.00125 -0.005315625 0.284039
71 1 -0.034846875 -0.00125 -0.004134375 0.271254
72 1 -0.034846875 -0.00125 -0.002953125 0.283386
73 1 -0.034846875 -0.00125 -0.001771875 0.274673
74 1 -0.034846875 -0.00125 -0.000590625 0.279781
75 1 -0.034846875 -0.00125 0.000590625 0.271526
76 1 -0.034846875 -0.00125 0.001771875 0.273074
77 1 -0.034846875 -0.00125 0.002953125 0.261754
78 1 -0.034846875 -0.00125 0.004134375 0.258892
79 1 -0.034846875 -0.00125 0.005315625 0.244023
80 1 -0.034846875 -0.00125 0.006496875 0.240432
81 1 -0.034846875 -0.00125 0.007678125 0.219746
82 1 -0.034846875 -0.00125 0.008859375 0.220059
83 1 -0.034846875 -0.00125 0.010040625 0.193737
84 1 -0.034846875 -0.00125 0.011221875 0.20091
85 1 -0.034846875 0.000116666666667 -0.011221875 0.228713
86 1 -0.034846875 0.000116666666667 -0.010040625 0.274893
87 1 -0.034846875 0.000116666666667 -0.008859375 0.249056
88 1 -0.034846875 0.000116666666667 -0.007678125 0.282968
89 1 -0.034846875 0.000116666666667 -0.006496875 0.262738
90 1 -0.034846875 0.000116666666667 -0.005315625 0.284039
91 1 -0.034846875 0.000116666666667 -0.004134375 0.271254
92 1 -0.034846875 0.000116666666667 -0.002953125 0.283386
93 1 -0.034846875 0.000116666666667 -0.001771875 0.274673
94 1 -0.034846875 0.000116666666667 -0.000590625 0.279781
95 1 -0.034846875 0.000116666666667 0.000590625 0.271526
96 1 -0.034846875 0.000116666666667 0.001771875 0.273074
97 1 -0.034846875 0.000116666666667 0.002953125 0.261754
98 1 -0.034846875 0.000116666666667 0.004134375 0.258892
99 1 -0.034846875 0.000116666666667 0.005315625 0.244023
100 1 -0.034846875 0.000116666666667 0.006496875 0.240432
101 1 -0.034846875 0.000116666666667 0.007678125 0.219746
102 1 -0.034846875 0.000116666666667 0.008859375 0.220059
103 1 -0.034846875 0.000116666666667 0.010040625 0.193737
104 1 -0.034846875 0.000116666666667 0.011221875 0.20091
105 1 -0.033665625 -0.00261666666667 -0.013584375 0.259662
106 1 -0.033665625 -0.00261666666667 -0.012403125 0.368359
107 1 -0.033665625 -0.00261666666667 -0.011221875 0.294033
108 1 -0.033665625 -0.00261666666667 -0.010040625 0.397859
109 1 -0.033665625 -0.00261666666667 -0.008859375 0.320465
110 1 -0.033665625 -0.00261666666667 -0.007678125 0.415499
111 1 -0.033665625 -0.00261666666667 -0.006496875 0.338791
112 1 -0.033665625 -0.00261666666667 -0.005315625 0.426062
113 1 -0.033665625 -0.00261666666667 -0.004134375 0.34819
114 1 -0.033665625 -0.00261666666667 -0.002953125 0.427624
115 1 -0.033665625 -0.00261666666667 -0.001771875 0.351926
116 1 -0.033665625 -0.00261666666667 -0.000590625 0.425415
117 1 -0.033665625 -0.00261666666667 0.000590625 0.347375
118 1 -0.033665625 -0.00261666666667 0.001771875 0.414638
119 1 -0.033665625 -0.00261666666667 0.002953125 0.335083
120 1 -0.033665625 -0.00261666666667 0.004134375 0.395458
121 1 -0.033665625 -0.00261666666667 0.005315625 0.310093
122 1 -0.033665625 -0.00261666666667 0.006496875 0.364588
123 1 -0.033665625 -0.00261666666667 0.007678125 0.277583
124 1 -0.033665625 -0.00261666666667 0.008859375 0.330634
125 1 -0.033665625 -0.00261666666667 0.010040625 0.241903
126 1 -0.033665625 -0.00261666666667 0.011221875 0.293567
127 1 -0.033665625 -0.00261666666667 0.012403125 0.207134
128 1 -0.033665625 -0.00261666666667 0.013584375 0.259677
129 1 -0.033665625 -0.00125 -0.013584375 0.259662
130 1 -0.033665625 -0.00125 -0.012403125 0.368359
131 1 -0.033665625 -0.00125 -0.011221875 0.294033
132 1 -0.033665625 -0.00125 -0.010040625 0.397859
133 1 -0.033665625 -0.00125 -0.008859375 0.320465
134 1 -0.033665625 -0.00125 -0.007678125 0.415499
135 1 -0.033665625 -0.00125 -0.006496875 0.338791
136 1 -0.033665625 -0.00125 -0.005315625 0.426062
137 1 -0.033665625 -0.00125 -0.004134375 0.34819
138 1 -0.033665625 -0.00125 -0.002953125 0.427624
139 1 -0.033665625 -0.00125 -0.001771875 0.351926
140 1 -0.033665625 -0.00125 -0.000590625 0.425415
141 1 -0.033665625 -0.00125 0.000590625 0.347375
142 1 -0.033665625 -0.00125 0.001771875 0.414638
143 1 -0.033665625 -0.00125 0.002953125 0.335083
144 1 -0.033665625 -0.00125 0.004134375 0.395458
145 1 -0.033665625 -0.00125 0.005315625 0.310093
146 1 -0.033665625 -0.00125 0.006496875 0.364588
147 1 -0.033665625 -0.00125 0.007678125 0.277583
148 1 -0.033665625 -0.00125 0.008859375 0.330634
149 1 -0.033665625 -0.00125 0.010040625 0.241903
150 1 -0.033665625 -0.00125 0.011221875 0.293567
151 1 -0.033665625 -0.00125 0.012403125 0.207134
152 1 -0.033665625 -0.00125 0.013584375 0.259677
153 1 -0.033665625 0.000116666666667 -0.013584375 0.259662
154 1 -0.033665625 0.000116666666667 -0.012403125 0.368359
155 1 -0.033665625 0.000116666666667 -0.011221875 0.294033
156 1 -0.033665625 0.000116666666667 -0.010040625 0.397859
157 1 -0.033665625 0.000116666666667 -0.008859375 0.320465
158 1 -0.033665625 0.000116666666667 -0.007678125 0.415499
159 1 -0.033665625 0.000116666666667 -0.006496875 0.338791
160 1 -0.033665625 0.000116666666667 -0.005315625 0.426062
161 1 -0.033665625 0.000116666666667 -0.004134375 0.34819
162 1 -0.033665625 0.000116666666667 -0.002953125 0.427624
163 1 -0.033665625 0.000116666666667 -0.001771875 0.351926
164 1 -0.033665625 0.000116666666667 -0.000590625 0.425415
165 1 -0.033665625 0.000116666666667 0.000590625 0.347375
166 1 -0.033665625 0.000116666666667 0.001771875 0.414638
167 1 -0.033665625 0.000116666666667 0.002953125 0.335083
168 1 -0.033665625 0.000116666666667 0.004134375 0.395458
169 1 -0.033665625 0.000116666666667 0.005315625 0.310093
170 1 -0.033665625 0.000116666666667 0.006496875 0.364588
171 1 -0.033665625 0.000116666666667 0.007678125 0.277583
172 1 -0.033665625 0.000116666666667 0.008859375 0.330634
173 1 -0.033665625 0.000116666666667 0.010040625 0.241903
174 1 -0.033665625 0.000116666666667 0.011221875 0.293567
175 1 -0.033665625 0.000116666666667 0.012403125 0.207134
176 1 -0.033665625 0.000116666666667 0.013584375 0.259677
177 1 -0.032484375 -0.00261666666667 -0.018309375 0.14987
178 1 -0.032484375 -0.00261666666667 -0.017128125 0.232495
179 1 -0.032484375 -0.00261666666667 -0.015946875 0.191431
180 1 -0.032484375 -0.00261666666667 -0.014765625 0.269007
181 1 -0.032484375 -0.00261666666667 -0.013584375 0.240414
182 1 -0.032484375 -0.00261666666667 -0.012403125 0.303942
183 1 -0.032484375 -0.00261666666667 -0.011221875 0.284178
184 1 -0.032484375 -0.00261666666667 -0.010040625 0.327744
185 1 -0.032484375 -0.00261666666667 -0.008859375 0.318178
186 1 -0.032484375 -0.00261666666667 -0.007678125 0.343319
187 1 -0.032484375 -0.00261666666667 -0.006496875 0.339994
188 1 -0.032484375 -0.00261666666667 -0.005315625 0.34839
189 1 -0.032484375 -0.00261666666667 -0.004134375 0.353109
190 1 -0.032484375 -0.00261666666667 -0.002953125 0.349524
191 1 -0.032484375 -0.00261666666667 -0.001771875 0.359307
192 1 -0.032484375 -0.00261666666667 -0.000590625 0.345193
193 1 -0.032484375 -0.00261666666667 0.000590625 0.357679
194 1 -0.032484375 -0.00261666666667 0.001771875 0.335363
195 1 -0.032484375 -0.00261666666667 0.002953125 0.347285
196 1 -0.032484375 -0.00261666666667 0.004134375 0.313219
197 1 -0.032484375 -0.00261666666667 0.005315625 0.322594
198 1 -0.032484375 -0.00261666666667 0.006496875 0.283966
199 1 -0.032484375 -0.00261666666667 0.007678125 0.282469
200 1 -0.032484375 -0.00261666666667 0.008859375 0.251163
201 1 -0.032484375 -0.00261666666667 0.010040625 0.23708
202 1 -0.032484375 -0.00261666666667 0.011221875 0.218973
203 1 -0.032484375 -0.00261666666667 0.012403125 0.193192
204 1 -0.032484375 -0.00261666666667 0.013584375 0.189389
205 1 -0.032484375 -0.00261666666667 0.014765625 0.154803
206 1 -0.032484375 -0.00261666666667 0.015946875 0.164352
207 1 -0.032484375 -0.00261666666667 0.017128125 0.127372
208 1 -0.032484375 -0.00261666666667 0.018309375 0.148264
209 1 -0.032484375 -0.00125 -0.018309375 0.14987
210 1 -0.032484375 -0.00125 -0.017128125 0.232495
211 1 -0.032484375 -0.00125 -0.015946875 0.191431
212 1 -0.032484375 -0.00125 -0.014765625 0.269007
213 1 -0.032484375 -0.00125 -0.013584375 0.240414
214 1 -0.032484375 -0.00125 -0.012403125 0.303942
215 1 -0.032484375 -0.00125 -0.011221875 0.284178
216 1 -0.032484375 -0.00125 -0.010040625 0.327744
217 1 -0.032484375 -0.00125 -0.008859375 0.318178
218 1 -0.032484375 -0.00125 -0.007678125 0.343319
219 1 -0.032484375 -0.00125 -0.006496875 0.339994
220 1 -0.032484375 -0.00125 -0.005315625 0.34839
221 1 -0.032484375 -0.00125 -0.004134375 0.353109
222 1 -0.032484375 -0.00125 -0.002953125 0.349524
223 1 -0.032484375 -0.00125 -0.001771875 0.359307
224 1 -0.032484375 -0.00125 -0.000590625 0.345193
225 1 -0.032484375 -0.00125 0.000590625 0.357679
226 1 -0.032484375 -0.00125 0.001771875 0.335363
227 1 -0.032484375 -0.00125 0.002953125 0.347285
228 1 -0.032484375 -0.00125 0.004134375 0.313219
229 1 -0.032484375 -0.00125 0.005315625 0.322594
230 1 -0.032484375 -0.00125 0.006496875 0.283966
231 1 -0.032484375 -0.00125 0.007678125 0.282469
232 1 -0.032484375 -0.00125 0.008859375 0.251163
233 1 -0.032484375 -0.00125 0.010040625 0.23708
234 1 -0.032484375 -0.00125 0.011221875 0.218973
235 1 -0.032484375 -0.00125 0.012403125 0.193192
236 1 -0.032484375 -0.00125 0.013584375 0.189389
237 1 -0.032484375 -0.00125 0.014765625 0.154803
238 1 -0.032484375 -0.00125 0.015946875 0.164352
239 1 -0.032484375 -0.00125 0.017128125 0.127372
240 1 -0.032484375 -0.00125 0.018309375 0.148264
241 1 -0.032484375 0.000116666666667 -0.018309375 0.14987
242 1 -0.032484375 0.000116666666667 -0.017128125 0.232495
243 1 -0.032484375 0.000116666666667 -0.015946875 0.191431
244 1 -0.032484375 0.000116666666667 -0.014765625 0.269007
245 1 -0.032484375 0.000116666666667 -0.013584375 0.240414
246 1 -0.032484375 0.000116666666667 -0.012403125 0.303942
247 1 -0.032484375 0.000116666666667 -0.011221875 0.284178
248 1 -0.032484375 0.000116666666667 -0.010040625 0.327744
249 1 -0.032484375 0.000116666666667 -0.008859375 0.318178
250 1 -0.032484375 0.000116666666667 -0.007678125 0.343319
251 1 -0.032484375 0.000116666666667 -0.006496875 0.339994
252 1 -0.032484375 0.000116666666667 -0.005315625 0.34839
253 1 -0.032484375 0.000116666666667 -0.004134375 0.353109
254 1 -0.032484375 0.000116666666667 -0.002953125 0.349524
255 1 -0.032484375 0.000116666666667 -0.001771875 0.359307
256 1 -0.032484375 0.000116666666667 -0.000590625 0.345193
257 1 -0.032484375 0.000116666666667 0.000590625 0.357679
258 1 -0.032484375 0.000116666666667 0.001771875 0.335363
259 1 -0.032484375 0.000116666666667 0.002953125 0.347285
260 1 -0.032484375 0.000116666666667 0.004134375 0.313219
261 1 -0.032484375 0.000116666666667 0.005315625 0.322594
262 1 -0.032484375 0.000116666666667 0.006496875 0.283966
263 1 -0.032484375 0.000116666666667 0.007678125 0.282469
264 1 -0.032484375 0.000116666666667 0.008859375 0.251163
265 1 -0.032484375 0.000116666666667 0.010040625 0.23708
266 1 -0.032484375 0.000116666666667 0.011221875 0.218973
267 1 -0.032484375 0.000116666666667 0.012403125 0.193192
268 1 -0.032484375 0.000116666666667 0.013584375 0.189389
269 1 -0.032484375 0.000116666666667 0.014765625 0.154803
270 1 -0.032484375 0.000116666666667 0.015946875 0.164352
271 1 -0.032484375 0.000116666666667 0.017128125 0.127372
272 1 -0.032484375 0.000116666666667 0.018309375 0.148264
273 1 -0.031303125 -0.00261666666667 -0.019490625 0.282104
274 1 -0.031303125 -0.00261666666667 -0.018309375 0.237039
275 1 -0.031303125 -0.00261666666667 -0.017128125 0.33588
276 1 -0.031303125 -0.00261666666667 -0.015946875 0.298473
277 1 -0.031303125 -0.00261666666667 -0.014765625 0.393923
278 1 -0.031303125 -0.00261666666667 -0.013584375 0.357092
279 1 -0.031303125 -0.00261666666667 -0.012403125 0.442402
280 1 -0.031303125 -0.00261666666667 -0.011221875 0.407172
281 1 -0.031303125 -0.00261666666667 -0.010040625 0.47892
282 1 -0.031303125 -0.00261666666667 -0.008859375 0.441031
283 1 -0.031303125 -0.00261666666667 -0.007678125 0.499614
284 1 -0.031303125 -0.00261666666667 -0.006496875 0.46294
285 1 -0.031303125 -0.00261666666667 -0.005315625 0.512554
286 1 -0.031303125 -0.00261666666667 -0.004134375 0.473609
287 1 -0.031303125 -0.00261666666667 -0.002953125 0.515184
288 1 -0.031303125 -0.00261666666667 -0.001771875 0.479763
289 1 -0.031303125 -0.00261666666667 -0.000590625 0.514162
290 1 -0.031303125 -0.00261666666667 0.000590625 0.477477
291 1 -0.031303125 -0.00261666666667 0.001771875 0.503451
292 1 -0.031303125 -0.00261666666667 0.002953125 0.467845
293 1 -0.031303125 -0.00261666666667 0.004134375 0.482887
294 1 -0.031303125 -0.00261666666667 0.005315625 0.436312
295 1 -0.031303125 -0.00261666666667 0.006496875 0.446681
296 1 -0.031303125 -0.00261666666667 0.007678125 0.390153
297 1 -0.031303125 -0.00261666666667 0.008859375 0.403416
298 1 -0.031303125 -0.00261666666667 0.010040625 0.335033
299 1 -0.031303125 -0.00261666666667 0.011221875 0.353106
300 1 -0.031303125 -0.00261666666667 0.012403125 0.278113
301 1 -0.031303125 -0.00261666666667 0.013584375 0.304292
302 1 -0.031303125 -0.00261666666667 0.014765625 0.22652
303 1 -0.031303125 -0.00261666666667 0.015946875 0.260129
304 1 -0.031303125 -0.00261666666667 0.017128125 0.185446
305 1 -0.031303125 -0.00261666666667 0.018309375 0.225593
306 1 -0.031303125 -0.00261666666667 0.019490625 0.156423
307 1 -0.031303125 -0.00125 -0.019490625 0.282104
308 1 -0.031303125 -0.00125 -0.018309375 0.237039
309 1 -0.031303125 -0.00125 -0.017128125 0.33588
310 1 -0.031303125 -0.00125 -0.015946875 0.298473
311 1 -0.031303125 -0.00125 -0.014765625 0.393923
312 1 -0.031303125 -0.00125 -0.013584375 0.357092
313 1 -0.031303125 -0.00125 -0.012403125 0.442402
314 1 -0.031303125 -0.00125 -0.011221875 0.407172
315 1 -0.031303125 -0.00125 -0.010040625 0.47892
316 1 -0.031303125 -0.00125 -0.008859375 0.441031
317 1 -0.031303125 -0.00125 -0.007678125 0.499614
318 1 -0.031303125 -0.00125 -0.006496875 0.46294
319 1 -0.031303125 -0.00125 -0.005315625 0.512554
320 1 -0.031303125 -0.00125 -0.004134375 0.473609
321 1 -0.031303125 -0.00125 -0.002953125 0.515184
322 1 -0.031303125 -0.00125 -0.001771875 0.479763
323 1 -0.031303125 -0.00125 -0.000590625 0.514162
324 1 -0.031303125 -0.00125 0.000590625 0.477477
325 1 -0.031303125 -0.00125 0.001771875 0.503451
326 1 -0.031303125 -0.00125 0.002953125 0.467845
327 1 -0.031303125 -0.00125 0.004134375 0.482887
328 1 -0.031303125 -0.00125 0.005315625 0.436312
329 1 -0.031303125 -0.00125 0.006496875 0.446681
330 1 -0.031303125 -0.00125 0.007678125 0.390153
331 1 -0.031303125 -0.00125 0.008859375 0.403416
332 1 -0.031303125 -0.00125 0.010040625 0.335033
333 1 -0.031303125 -0.00125 0.011221875 0.353106
334 1 -0.031303125 -0.00125 0.012403125 0.278113
335 1 -0.031303125 -0.00125 0.013584375 0.304292
336 1 -0.031303125 -0.00125 0.014765625 0.22652
337 1 -0.031303125 -0.00125 0.015946875 0.260129
338 1 -0.031303125 -0.00125 0.017128125 0.185446
339 1 -0.031303125 -0.00125 0.018309375 0.225593
340 1 -0.031303125 -0.00125 0.019490625 0.156423
341 1 -0.031303125 0.000116666666667 -0.019490625 0.282104
342 1 -0.031303125 0.000116666666667 -0.018309375 0.237039
343 1 -0.031303125 0.000116666666667 -0.017128125 0.33588
344 1 -0.031303125 0.000116666666667 -0.015946875 0.298473
345 1 -0.031303125 0.000116666666667 -0.014765625 0.393923
346 1 -0.031303125 0.000116666666667 -0.013584375 0.357092
347 1 -0.031303125 0.000116666666667 -0.012403125 0.442402
348 1 -0.031303125 0.000116666666667 -0.011221875 0.407172
349 1 -0.031303125 0.000116666666667 -0.010040625 0.47892
350 1 -0.031303125 0.000116666666667 -0.008859375 0.441031
351 1 -0.031303125 0.000116666666667 -0.007678125 0.499614
352 1 -0.031303125 0.000116666666667 -0.006496875 0.46294
353 1 -0.031303125 0.000116666666667 -0.005315625 0.512554
354 1 -0.031303125 0.000116666666667 -0.004134375 0.473609
355 1 -0.031303125 0.000116666666667 -0.002953125 0.515184
356 1 -0.031303125 0.000116666666667 -0.001771875 0.479763
357 1 -0.031303125 0.000116666666667 -0.000590625 0.514162
358 1 -0.031303125 0.000116666666667 0.000590625 0.477477
359 1 -0.031303125 0.000116666666667 0.001771875 0.503451
360 1 -0.031303125 0.000116666666667 0.002953125 0.467845
361 1 -0.031303125 0.000116666666667 0.004134375 0.482887
362 1 -0.031303125 0.000116666666667 0.005315625 0.436312
363 1 -0.031303125 0.000116666666667 0.006496875 0.446681
364 1 -0.031303125 0.000116666666667 0.007678125 0.390153
365 1 -0.031303125 0.000116666666667 0.008859375 0.403416
366 1 -0.031303125 0.000116666666667 0.010040625 0.335033
367 1 -0.031303125 0.000116666666667 0.011221875 0.353106
368 1 -0.031303125 0.000116666666667 0.012403125 0.278113
369 1 -0.031303125 0.000116666666667 0.013584375 0.304292
370 1 -0.031303125 0.000116666666667 0.014765625 0.22652
371 1 -0.031303125 0.000116666666667 0.015946875 0.260129
372 1 -0.031303125 0.000116666666667 0.017128125 0.185446
373 1 -0.031303125 0.000116666666667 0.018309375 0.225593
374 1 -0.031303125 0.000116666666667 0.019490625 0.156423
375 1 -0.030121875 -0.00261666666667 -0.020671875 0.159864
376 1 -0.030121875 -0.00261666666667 -0.019490625 0.249132
377 1 -0.030121875 -0.00261666666667 -0.018309375 0.214182
378 1 -0.030121875 -0.00261666666667 -0.017128125 0.301722
379 1 -0.030121875 -0.00261666666667 -0.015946875 0.279903
380 1 -0.030121875 -0.00261666666667 -0.014765625 0.357016
381 1 -0.030121875 -0.00261666666667 -0.013584375 0.347518
382 1 -0.030121875 -0.00261666666667 -0.012403125 0.40493
383 1 -0.030121875 -0.00261666666667 -0.011221875 0.404013
384 1 -0.030121875 -0.00261666666667 -0.010040625 0.435824
385 1 -0.030121875 -0.00261666666667 -0.008859375 0.445625
386 1 -0.030121875 -0.00261666666667 -0.007678125 0.453898
387 1 -0.030121875 -0.00261666666667 -0.006496875 0.472783
388 1 -0.030121875 -0.00261666666667 -0.005315625 0.458992
389 1 -0.030121875 -0.00261666666667 -0.004134375 0.490721
390 1 -0.030121875 -0.00261666666667 -0.002953125 0.460609
391 1 -0.030121875 -0.00261666666667 -0.001771875 0.500677
392 1 -0.030121875 -0.00261666666667 -0.000590625 0.457243
393 1 -0.030121875 -0.00261666666667 0.000590625 0.50242
394 1 -0.030121875 -0.00261666666667 0.001771875 0.448398
395 1 -0.030121875 -0.00261666666667 0.002953125 0.493995
396 1 -0.030121875 -0.00261666666667 0.004134375 0.425151
397 1 -0.030121875 -0.00261666666667 0.005315625 0.468832
398 1 -0.030121875 -0.00261666666667 0.006496875 0.38763
399 1 -0.030121875 -0.00261666666667 0.007678125 0.422204
400 1 -0.030121875 -0.00261666666667 0.008859375 0.34168
401 1 -0.030121875 -0.00261666666667 0.010040625 0.362981
402 1 -0.030121875 -0.00261666666667 0.011221875 0.294696
403 1 -0.030121875 -0.00261666666667 0.012403125 0.29628
404 1 -0.030121875 -0.00261666666667 0.013584375 0.249999
405 1 -0.030121875 -0.00261666666667 0.014765625 0.232028
406 1 -0.030121875 -0.00261666666667 0.015946875 0.210682
407 1 -0.030121875 -0.00261666666667 0.017128125 0.181341
408 1 -0.030121875 -0.00261666666667 0.018309375 0.181975
409 1 -0.030121875 -0.00261666666667 0.019490625 0.14463
410 1 -0.030121875 -0.00261666666667 0.020671875 0.162619
411 1 -0.030121875 -0.00125 -0.020671875 0.159864
412 1 -0.030121875 -0.00125 -0.019490625 0.249132
413 1 -0.030121875 -0.00125 -0.018309375 0.214182
414 1 -0.030121875 -0.00125 -0.017128125 0.301722
415 1 -0.030121875 -0.00125 -0.015946875 0.279903
416 1 -0.030121875 -0.00125 -0.014765625 0.357016
417 1 -0.030121875 -0.00125 -0.013584375 0.347518
418 1 -0.030121875 -0.00125 -0.012403125 0.40493
419 1 -0.030121875 -0.00125 -0.011221875 0.404013
420 1 -0.030121875 -0.00125 -0.010040625 0.435824
421 1 -0.030121875 -0.00125 -0.008859375 0.445625
422 1 -0.030121875 -0.00125 -0.007678125 0.453898
423 1 -0.030121875 -0.00125 -0.006496875 0.472783
424 1 -0.030121875 -0.00125 -0.005315625 0.458992
425 1 -0.030121875 -0.00125 -0.004134375 0.490721
426 1 -0.030121875 -0.00125 -0.002953125 0.460609
427 1 -0.030121875 -0.00125 -0.001771875 0.500677
428 1 -0.030121875 -0.00125 -0.000590625 0.457243
429 1 -0.030121875 -0.00125 0.000590625 0.50242
430 1 -0.030121875 -0.00125 0.001771875 0.448398
431 1 -0.030121875 -0.00125 0.002953125 0.493995
432 1 -0.030121875 -0.00125 0.004134375 0.425151
433 1 -0.030121875 -0.00125 0.005315625 0.468832
434 1 -0.030121875 -0.00125 0.006496875 0.38763
435 1 -0.030121875 -0.00125 0.007678125 0.422204
436 1 -0.030121875 -0.00125 0.008859375 0.34168
437 1 -0.030121875 -0.00125 0.010040625 0.362981
438 1 -0.030121875 -0.00125 0.011221875 0.294696
439 1 -0.030121875 -0.00125 0.012403125 0.29628
440 1 -0.030121875 -0.00125 0.013584375 0.249999
441 1 -0.030121875 -0.00125 0.014765625 0.232028
442 1 -0.030121875 -0.00125 0.015946875 0.210682
443 1 -0.030121875 -0.00125 0.017128125 0.181341
444 1 -0.030121875 -0.00125 0.018309375 0.181975
445 1 -0.030121875 -0.00125 0.019490625 0.14463
446 1 -0.030121875 -0.00125 0.020671875 0.162619
447 1 -0.030121875 0.000116666666667 -0.020671875 0.159864
448 1 -0.030121875 0.000116666666667 -0.019490625 0.249132
449 1 -0.030121875 0.000116666666667 -0.018309375 0.214182
450 1 -0.030121875 0.000116666666667 -0.017128125 0.301722
451 1 -0.030121875 0.000116666666667 -0.015946875 0.279903
452 1 -0.030121875 0.000116666666667 -0.014765625 0.357016
453 1 -0.030121875 0.000116666666667 -0.013584375 0.347518
454 1 -0.030121875 0.000116666666667 -0.012403125 0.40493
455 1 -0.030121875 0.000116666666667 -0.011221875 0.404013
456 1 -0.030121875 0.000116666666667 -0.010040625 0.435824
457 1 -0.030121875 0.000116666666667 -0.008859375 0.445625
458 1 -0.030121875 0.000116666666667 -0.007678125 0.453898
459 1 -0.030121875 0.000116666666667 -0.006496875 0.472783
460 1 -0.030121875 0.000116666666667 -0.005315625 0.458992
461 1 -0.030121875 0.000116666666667 -0.004134375 0.490721
462 1 -0.030121875 0.000116666666667 -0.002953125 0.460609
463 1 -0.030121875 0.000116666666667 -0.001771875 0.500677
464 1 -0.030121875 0.000116666666667 -0.000590625 0.457243
465 1 -0.030121875 0.000116666666667 0.000590625 0.50242
466 1 -0.030121875 0.000116666666667 0.001771875 0.448398
467 1 -0.030121875 0.000116666666667 0.002953125 0.493995
468 1 -0.030121875 0.000116666666667 0.004134375 0.425151
469 1 -0.030121875 0.000116666666667 0.005315625 0.468832
470 1 -0.030121875 0.000116666666667 0.006496875 0.38763
471 1 -0.030121875 0.000116666666667 0.007678125 0.422204
472 1 -0.030121875 0.000116666666667 0.008859375 0.34168
473 1 -0.030121875 0.000116666666667 0.010040625 0.362981
474 1 -0.030121875 0.000116666666667 0.011221875 0.294696
475 1 -0.030121875 0.000116666666667 0.012403125 0.29628
476 1 -0.030121875 0.000116666666667 0.013584375 0.249999
477 1 -0.030121875 0.000116666666667 0.014765625 0.232028
478 1 -0.030121875 0.000116666666667 0.015946875 0.210682
479 1 -0.030121875 0.000116666666667 0.017128125 0.181341
480 1 -0.030121875 0.000116666666667 0.018309375 0.181975
481 1 -0.030121875 0.000116666666667 0.019490625 0.14463
482 1 -0.030121875 0.000116666666667 0.020671875 0.162619
483 1 -0.028940625 -0.00261666666667 -0.021853125 0.298599
484 1 -0.028940625 -0.00261666666667 -0.020671875 0.268569
485 1 -0.028940625 -0.00261666666667 -0.019490625 0.36203
486 1 -0.028940625 -0.00261666666667 -0.018309375 0.342684
487 1 -0.028940625 -0.00261666666667 -0.017128125 0.431052
488 1 -0.028940625 -0.00261666666667 -0.015946875 0.417812
489 1 -0.028940625 -0.00261666666667 -0.014765625 0.495052
490 1 -0.028940625 -0.00261666666667 -0.013584375 0.474879
491 1 -0.028940625 -0.00261666666667 -0.012403125 0.541467
492 1 -0.028940625 -0.00261666666667 -0.011221875 0.517125
493 1 -0.028940625 -0.00261666666667 -0.010040625 0.575528
494 1 -0.028940625 -0.00261666666667 -0.008859375 0.545698
495 1 -0.028940625 -0.00261666666667 -0.007678125 0.59561
496 1 -0.028940625 -0.00261666666667 -0.006496875 0.565002
497 1 -0.028940625 -0.00261666666667 -0.005315625 0.608252
498 1 -0.028940625 -0.00261666666667 -0.004134375 0.573763
499 1 -0.028940625 -0.00261666666667 -0.002953125 0.610712
500 1 -0.028940625 -0.00261666666667 -0.001771875 0.579192
501 1 -0.028940625 -0.00261666666667 -0.000590625 0.610092
502 1 -0.028940625 -0.00261666666667 0.000590625 0.576771
503 1 -0.028940625 -0.00261666666667 0.001771875 0.599887
504 1 -0.028940625 -0.00261666666667 0.002953125 0.56869
505 1 -0.028940625 -0.00261666666667 0.004134375 0.5805
506 1 -0.028940625 -0.00261666666667 0.005315625 0.546089
507 1 -0.028940625 -0.00261666666667 0.006496875 0.548128
508 1 -0.028940625 -0.00261666666667 0.007678125 0.513384
509 1 -0.028940625 -0.00261666666667 0.008859375 0.507864
510 1 -0.028940625 -0.00261666666667 0.010040625 0.467781
511 1 -0.028940625 -0.00261666666667 0.011221875 0.456384
512 1 -0.028940625 -0.00261666666667 0.012403125 0.404778
513 1 -0.028940625 -0.00261666666667 0.013584375 0.397651
514 1 -0.028940625 -0.00261666666667 0.014765625 0.334213
515 1 -0.028940625 -0.00261666666667 0.015946875 0.339423
516 1 -0.028940625 -0.00261666666667 0.017128125 0.270013
517 1 -0.028940625 -0.00261666666667 0.018309375 0.291059
518 1 -0.028940625 -0.00261666666667 0.019490625 0.222547
519 1 -0.028940625 -0.00261666666667 0.020671875 0.256244
520 1 -0.028940625 -0.00261666666667 0.021853125 0.188941
521 1 -0.028940625 -0.00125 -0.021853125 0.298599
522 1 -0.028940625 -0.00125 -0.020671875 0.268569
523 1 -0.028940625 -0.00125 -0.019490625 0.36203
524 1 -0.028940625 -0.00125 -0.018309375 0.342684
525 1 -0.028940625 -0.00125 -0.017128125 0.431052
526 1 -0.028940625 -0.00125 -0.015946875 0.417812
527 1 -0.028940625 -0.00125 -0.014765625 0.495052
528 1 -0.028940625 -0.00125 -0.013584375 0.474879
529 1 -0.028940625 -0.00125 -0.012403125 0.541467
530 1 -0.028940625 -0.00125 -0.011221875 0.517125
531 1 -0.028940625 -0.00125 -0.010040625 0.575528
532 1 -0.028940625 -0.00125 -0.008859375 0.545698
533 1 -0.028940625 -0.00125 -0.007678125 0.59561
534 1 -0.028940625 -0.00125 -0.006496875 0.565002
535 1 -0.028940625 -0.00125 -0.005315625 0.608252
536 1 -0.028940625 -0.00125 -0.004134375 0.573763
537 1 -0.028940625 -0.00125 -0.002953125 0.610712