ITEM: TIMESTEP
0
ITEM: NUMBER OF ATOMS
9240
ITEM: BOX BOUNDS ss ss ss
-3.7007399999999996e-02 3.7007399999999996e-02
-2.0002499999999999e-03 2.5000000000000004e-07
-3.7007399999999996e-02 3.7007399999999996e-02
ITEM: ATOMS id type x y z c_1
0 1 -0.037209375 -0.00261666666667 -0.000590625 0.297419
1 1 -0.037209375 -0.00125 -0.000590625 0.297419
2 1 -0.037209375 0.000116666666667 -0.000590625 0.297419
3 1 -0.036028125 -0.00261666666667 -0.007678125 0.248594
4 1 -0.036028125 -0.00261666666667 -0.006496875 0.152861
5 1 -0.036028125 -0.00261666666667 -0.005315625 0.257185
6 1 -0.036028125 -0.00261666666667 -0.004134375 0.16168
7 1 -0.036028125 -0.00261666666667 -0.002953125 0.264443
8 1 -0.036028125 -0.00261666666667 -0.001771875 0.17083
9 1 -0.036028125 -0.00261666666667 -0.000590625 0.272607
10 1 -0.036028125 -0.00261666666667 0.000590625 0.177866
11 1 -0.036028125 -0.00261666666667 0.001771875 0.276312
12 1 -0.036028125 -0.00261666666667 0.002953125 0.179714
13 1 -0.036028125 -0.00261666666667 0.004134375 0.2723
14 1 -0.036028125 -0.00261666666667 0.005315625 0.171242
15 1 -0.036028125 -0.00261666666667 0.006496875 0.256372
16 1 -0.036028125 -0.00261666666667 0.007678125 0.15457
17 1 -0.036028125 -0.00125 -0.007678125 0.248594
18 1 -0.036028125 -0.00125 -0.006496875 0.152861
19 1 -0.036028125 -0.00125 -0.005315625 0.257185
20 1 -0.036028125 -0.00125 -0.004134375 0.16168
21 1 -0.036028125 -0.00125 -0.002953125 0.264443
22 1 -0.036028125 -0.00125 -0.001771875 0.17083
23 1 -0.036028125 -0.00125 -0.000590625 0.272607
24 1 -0.036028125 -0.00125 0.000590625 0.177866
25 1 -0.036028125 -0.00125 0.001771875 0.276312
26 1 -0.036028125 -0.00125 0.002953125 0.179714
27 1 -0.036028125 -0.00125 0.004134375 0.2723
28 1 -0.036028125 -0.00125 0.005315625 0.171242
29 1 -0.036028125 -0.00125 0.006496875 0.256372
30 1 -0.036028125 -0.00125 0.007678125 0.15457
31 1 -0.036028125 0.000116666666667 -0.007678125 0.248594
32 1 -0.036028125 0.000116666666667 -0.006496875 0.152861
33 1 -0.036028125 0.000116666666667 -0.005315625 0.257185
34 1 -0.036028125 0.000116666666667 -0.004134375 0.16168
35 1 -0.036028125 0.000116666666667 -0.002953125 0.264443
36 1 -0.036028125 0.000116666666667 -0.001771875 0.17083
37 1 -0.036028125 0.000116666666667 -0.000590625 0.272607
38 1 -0.036028125 0.000116666666667 0.000590625 0.177866
39 1 -0.036028125 0.000116666666667 0.001771875 0.276312
40 1 -0.036028125 0.000116666666667 0.002953125 0.179714
41 1 -0.036028125 0.000116666666667 0.004134375 0.2723
42 1 -0.036028125 0.000116666666667 0.005315625 0.171242
43 1 -0.036028125 0.000116666666667 0.006496875 0.256372
44 1 -0.036028125 0.000116666666667 0.007678125 0.15457
45 1 -0.034846875 -0.00261666666667 -0.011221875 0.141535
46 1 -0.034846875 -0.00261666666667 -0.010040625 0.187438
47 1 -0.034846875 -0.00261666666667 -0.008859375 0.159689
48 1 -0.034846875 -0.00261666666667 -0.007678125 0.199862
49 1 -0.034846875 -0.00261666666667 -0.006496875 0.173209
50 1 -0.034846875 -0.00261666666667 -0.005315625 0.208429
51 1 -0.034846875 -0.00261666666667 -0.004134375 0.186111
52 1 -0.034846875 -0.00261666666667 -0.002953125 0.216339
53 1 -0.034846875 -0.00261666666667 -0.001771875 0.199237
54 1 -0.034846875 -0.00261666666667 -0.000590625 0.223715
55 1 -0.034846875 -0.00261666666667 0.000590625 0.210675
56 1 -0.034846875 -0.00261666666667 0.001771875 0.227934
57 1 -0.034846875 -0.00261666666667 0.002953125 0.215422
58 1 -0.034846875 -0.00261666666667 0.004134375 0.221578
59 1 -0.034846875 -0.00261666666667 0.005315625 0.209708
60 1 -0.034846875 -0.00261666666667 0.006496875 0.204984
61 1 -0.034846875 -0.00261666666667 0.007678125 0.187573
62 1 -0.034846875 -0.00261666666667 0.008859375 0.176624
63 1 -0.034846875 -0.00261666666667 0.010040625 0.155021
64 1 -0.034846875 -0.00261666666667 0.011221875 0.145158
65 1 -0.034846875 -0.00125 -0.011221875 0.141535
66 1 -0.034846875 -0.00125 -0.010040625 0.187438
67 1 -0.034846875 -0.00125 -0.008859375 0.159689
68 1 -0.034846875 -0.00125 -0.007678125 0.199862
69 1 -0.034846875 -0.00125 -0.006496875 0.173209
70 1 -0.034846875 -0.00125 -0.005315625 0.208429
71 1 -0.034846875 -0.00125 -0.004134375 0.186111
72 1 -0.034846875 -0.00125 -0.002953125 0.216339
73 1 -0.034846875 -0.00125 -0.001771875 0.199237
74 1 -0.034846875 -0.00125 -0.000590625 0.223715
75 1 -0.034846875 -0.00125 0.000590625 0.210675
76 1 -0.034846875 -0.00125 0.001771875 0.227934
77 1 -0.034846875 -0.00125 0.002953125 0.215422
78 1 -0.034846875 -0.00125 0.004134375 0.221578
79 1 -0.034846875 -0.00125 0.005315625 0.209708
80 1 -0.034846875 -0.00125 0.006496875 0.204984
81 1 -0.034846875 -0.00125 0.007678125 0.187573
82 1 -0.034846875 -0.00125 0.008859375 0.176624
83 1 -0.034846875 -0.00125 0.010040625 0.155021
84 1 -0.034846875 -0.00125 0.011221875 0.145158
85 1 -0.034846875 0.000116666666667 -0.011221875 0.141535
86 1 -0.034846875 0.000116666666667 -0.010040625 0.187438
87 1 -0.034846875 0.000116666666667 -0.008859375 0.159689
88 1 -0.034846875 0.000116666666667 -0.007678125 0.199862
89 1 -0.034846875 0.000116666666667 -0.006496875 0.173209
90 1 -0.034846875 0.000116666666667 -0.005315625 0.208429
91 1 -0.034846875 0.000116666666667 -0.004134375 0.186111
92 1 -0.034846875 0.000116666666667 -0.002953125 0.216339
93 1 -0.034846875 0.000116666666667 -0.001771875 0.199237
94 1 -0.034846875 0.000116666666667 -0.000590625 0.223715
95 1 -0.034846875 0.000116666666667 0.000590625 0.210675
96 1 -0.034846875 0.000116666666667 0.001771875 0.227934
97 1 -0.034846875 0.000116666666667 0.002953125 0.215422
98 1 -0.034846875 0.000116666666667 0.004134375 0.221578
99 1 -0.034846875 0.000116666666667 0.005315625 0.209708
100 1 -0.034846875 0.000116666666667 0.006496875 0.204984
101 1 -0.034846875 0.000116666666667 0.007678125 0.187573
102 1 -0.034846875 0.000116666666667 0.008859375 0.176624
103 1 -0.034846875 0.000116666666667 0.010040625 0.155021
104 1 -0.034846875 0.000116666666667 0.011221875 0.145158
105 1 -0.033665625 -0.00261666666667 -0.013584375 0.185457
106 1 -0.033665625 -0.00261666666667 -0.012403125 0.300913
107 1 -0.033665625 -0.00261666666667 -0.011221875 0.230336
108 1 -0.033665625 -0.00261666666667 -0.010040625 0.33312
109 1 -0.033665625 -0.00261666666667 -0.008859375 0.263453
110 1 -0.033665625 -0.00261666666667 -0.007678125 0.352705
111 1 -0.033665625 -0.00261666666667 -0.006496875 0.288049
112 1 -0.033665625 -0.00261666666667 -0.005315625 0.367927
113 1 -0.033665625 -0.00261666666667 -0.004134375 0.307661
114 1 -0.033665625 -0.00261666666667 -0.002953125 0.380806
115 1 -0.033665625 -0.00261666666667 -0.001771875 0.327272
116 1 -0.033665625 -0.00261666666667 -0.000590625 0.394619
117 1 -0.033665625 -0.00261666666667 0.000590625 0.342174
118 1 -0.033665625 -0.00261666666667 0.001771875 0.401418
119 1 -0.033665625 -0.00261666666667 0.002953125 0.347448
120 1 -0.033665625 -0.00261666666667 0.004134375 0.397585
121 1 -0.033665625 -0.00261666666667 0.005315625 0.333584
122 1 -0.033665625 -0.00261666666667 0.006496875 0.375465
123 1 -0.033665625 -0.00261666666667 0.007678125 0.299938
124 1 -0.033665625 -0.00261666666667 0.008859375 0.335444
125 1 -0.033665625 -0.00261666666667 0.010040625 0.245042
126 1 -0.033665625 -0.00261666666667 0.011221875 0.278493
127 1 -0.033665625 -0.00261666666667 0.012403125 0.182192
128 1 -0.033665625 -0.00261666666667 0.013584375 0.216698
129 1 -0.033665625 -0.00125 -0.013584375 0.185457
130 1 -0.033665625 -0.00125 -0.012403125 0.300913
131 1 -0.033665625 -0.00125 -0.011221875 0.230336
132 1 -0.033665625 -0.00125 -0.010040625 0.33312
133 1 -0.033665625 -0.00125 -0.008859375 0.263453
134 1 -0.033665625 -0.00125 -0.007678125 0.352705
135 1 -0.033665625 -0.00125 -0.006496875 0.288049
136 1 -0.033665625 -0.00125 -0.005315625 0.367927
137 1 -0.033665625 -0.00125 -0.004134375 0.307661
138 1 -0.033665625 -0.00125 -0.002953125 0.380806
139 1 -0.033665625 -0.00125 -0.001771875 0.327272
140 1 -0.033665625 -0.00125 -0.000590625 0.394619
141 1 -0.033665625 -0.00125 0.000590625 0.342174
142 1 -0.033665625 -0.00125 0.001771875 0.401418
143 1 -0.033665625 -0.00125 0.002953125 0.347448
144 1 -0.033665625 -0.00125 0.004134375 0.397585
145 1 -0.033665625 -0.00125 0.005315625 0.333584
146 1 -0.033665625 -0.00125 0.006496875 0.375465
147 1 -0.033665625 -0.00125 0.007678125 0.299938
148 1 -0.033665625 -0.00125 0.008859375 0.335444
149 1 -0.033665625 -0.00125 0.010040625 0.245042
150 1 -0.033665625 -0.00125 0.011221875 0.278493
151 1 -0.033665625 -0.00125 0.012403125 0.182192
152 1 -0.033665625 -0.00125 0.013584375 0.216698
153 1 -0.033665625 0.000116666666667 -0.013584375 0.185457
154 1 -0.033665625 0.000116666666667 -0.012403125 0.300913
155 1 -0.033665625 0.000116666666667 -0.011221875 0.230336
156 1 -0.033665625 0.000116666666667 -0.010040625 0.33312
157 1 -0.033665625 0.000116666666667 -0.008859375 0.263453
158 1 -0.033665625 0.000116666666667 -0.007678125 0.352705
159 1 -0.033665625 0.000116666666667 -0.006496875 0.288049
160 1 -0.033665625 0.000116666666667 -0.005315625 0.367927
161 1 -0.033665625 0.000116666666667 -0.004134375 0.307661
162 1 -0.033665625 0.000116666666667 -0.002953125 0.380806
163 1 -0.033665625 0.000116666666667 -0.001771875 0.327272
164 1 -0.033665625 0.000116666666667 -0.000590625 0.394619
165 1 -0.033665625 0.000116666666667 0.000590625 0.342174
166 1 -0.033665625 0.000116666666667 0.001771875 0.401418
167 1 -0.033665625 0.000116666666667 0.002953125 0.347448
168 1 -0.033665625 0.000116666666667 0.004134375 0.397585
169 1 -0.033665625 0.000116666666667 0.005315625 0.333584
170 1 -0.033665625 0.000116666666667 0.006496875 0.375465
171 1 -0.033665625 0.000116666666667 0.007678125 0.299938
172 1 -0.033665625 0.000116666666667 0.008859375 0.335444
173 1 -0.033665625 0.000116666666667 0.010040625 0.245042
174 1 -0.033665625 0.000116666666667 0.011221875 0.278493
175 1 -0.033665625 0.000116666666667 0.012403125 0.182192
176 1 -0.033665625 0.000116666666667 0.013584375 0.216698
177 1 -0.032484375 -0.00261666666667 -0.018309375 0.129273
178 1 -0.032484375 -0.00261666666667 -0.017128125 0.193183
179 1 -0.032484375 -0.00261666666667 -0.015946875 0.202497
180 1 -0.032484375 -0.00261666666667 -0.014765625 0.253855
181 1 -0.032484375 -0.00261666666667 -0.013584375 0.274929
182 1 -0.032484375 -0.00261666666667 -0.012403125 0.306654
183 1 -0.032484375 -0.00261666666667 -0.011221875 0.33347
184 1 -0.032484375 -0.00261666666667 -0.010040625 0.33759
185 1 -0.032484375 -0.00261666666667 -0.008859375 0.371679
186 1 -0.032484375 -0.00261666666667 -0.007678125 0.357818
187 1 -0.032484375 -0.00261666666667 -0.006496875 0.394489
188 1 -0.032484375 -0.00261666666667 -0.005315625 0.368963
189 1 -0.032484375 -0.00261666666667 -0.004134375 0.41598
190 1 -0.032484375 -0.00261666666667 -0.002953125 0.377914
191 1 -0.032484375 -0.00261666666667 -0.001771875 0.435987
192 1 -0.032484375 -0.00261666666667 -0.000590625 0.386701
193 1 -0.032484375 -0.00261666666667 0.000590625 0.452106
194 1 -0.032484375 -0.00261666666667 0.001771875 0.393346
195 1 -0.032484375 -0.00261666666667 0.002953125 0.462507
196 1 -0.032484375 -0.00261666666667 0.004134375 0.387513
197 1 -0.032484375 -0.00261666666667 0.005315625 0.463962
198 1 -0.032484375 -0.00261666666667 0.006496875 0.3687
199 1 -0.032484375 -0.00261666666667 0.007678125 0.43449
200 1 -0.032484375 -0.00261666666667 0.008859375 0.324049
201 1 -0.032484375 -0.00261666666667 0.010040625 0.371213
202 1 -0.032484375 -0.00261666666667 0.011221875 0.261082
203 1 -0.032484375 -0.00261666666667 0.012403125 0.285042
204 1 -0.032484375 -0.00261666666667 0.013584375 0.19057
205 1 -0.032484375 -0.00261666666667 0.014765625 0.192784
206 1 -0.032484375 -0.00261666666667 0.015946875 0.13051
207 1 -0.032484375 -0.00261666666667 0.017128125 0.12085
208 1 -0.032484375 -0.00261666666667 0.018309375 0.088251
209 1 -0.032484375 -0.00125 -0.018309375 0.129273
210 1 -0.032484375 -0.00125 -0.017128125 0.193183
211 1 -0.032484375 -0.00125 -0.015946875 0.202497
212 1 -0.032484375 -0.00125 -0.014765625 0.253855
213 1 -0.032484375 -0.00125 -0.013584375 0.274929
214 1 -0.032484375 -0.00125 -0.012403125 0.306654
215 1 -0.032484375 -0.00125 -0.011221875 0.33347
216 1 -0.032484375 -0.00125 -0.010040625 0.33759
217 1 -0.032484375 -0.00125 -0.008859375 0.371679
218 1 -0.032484375 -0.00125 -0.007678125 0.357818
219 1 -0.032484375 -0.00125 -0.006496875 0.394489
220 1 -0.032484375 -0.00125 -0.005315625 0.368963
221 1 -0.032484375 -0.00125 -0.004134375 0.41598
222 1 -0.032484375 -0.00125 -0.002953125 0.377914
223 1 -0.032484375 -0.00125 -0.001771875 0.435987
224 1 -0.032484375 -0.00125 -0.000590625 0.386701
225 1 -0.032484375 -0.00125 0.000590625 0.452106
226 1 -0.032484375 -0.00125 0.001771875 0.393346
227 1 -0.032484375 -0.00125 0.002953125 0.462507
228 1 -0.032484375 -0.00125 0.004134375 0.387513
229 1 -0.032484375 -0.00125 0.005315625 0.463962
230 1 -0.032484375 -0.00125 0.006496875 0.3687
231 1 -0.032484375 -0.00125 0.007678125 0.43449
232 1 -0.032484375 -0.00125 0.008859375 0.324049
233 1 -0.032484375 -0.00125 0.010040625 0.371213
234 1 -0.032484375 -0.00125 0.011221875 0.261082
235 1 -0.032484375 -0.00125 0.012403125 0.285042
236 1 -0.032484375 -0.00125 0.013584375 0.19057
237 1 -0.032484375 -0.00125 0.014765625 0.192784
238 1 -0.032484375 -0.00125 0.015946875 0.13051
239 1 -0.032484375 -0.00125 0.017128125 0.12085
240 1 -0.032484375 -0.00125 0.018309375 0.088251
241 1 -0.032484375 0.000116666666667 -0.018309375 0.129273
242 1 -0.032484375 0.000116666666667 -0.017128125 0.193183
243 1 -0.032484375 0.000116666666667 -0.015946875 0.202497
244 1 -0.032484375 0.000116666666667 -0.014765625 0.253855
245 1 -0.032484375 0.000116666666667 -0.013584375 0.274929
246 1 -0.032484375 0.000116666666667 -0.012403125 0.306654
247 1 -0.032484375 0.000116666666667 -0.011221875 0.33347
248 1 -0.032484375 0.000116666666667 -0.010040625 0.33759
249 1 -0.032484375 0.000116666666667 -0.008859375 0.371679
250 1 -0.032484375 0.000116666666667 -0.007678125 0.357818
251 1 -0.032484375 0.000116666666667 -0.006496875 0.394489
252 1 -0.032484375 0.000116666666667 -0.005315625 0.368963
253 1 -0.032484375 0.000116666666667 -0.004134375 0.41598
254 1 -0.032484375 0.000116666666667 -0.002953125 0.377914
255 1 -0.032484375 0.000116666666667 -0.001771875 0.435987
256 1 -0.032484375 0.000116666666667 -0.000590625 0.386701
257 1 -0.032484375 0.000116666666667 0.000590625 0.452106
258 1 -0.032484375 0.000116666666667 0.001771875 0.393346
259 1 -0.032484375 0.000116666666667 0.002953125 0.462507
260 1 -0.032484375 0.000116666666667 0.004134375 0.387513
261 1 -0.032484375 0.000116666666667 0.005315625 0.463962
262 1 -0.032484375 0.000116666666667 0.006496875 0.3687
263 1 -0.032484375 0.000116666666667 0.007678125 0.43449
264 1 -0.032484375 0.000116666666667 0.008859375 0.324049
265 1 -0.032484375 0.000116666666667 0.010040625 0.371213
266 1 -0.032484375 0.000116666666667 0.011221875 0.261082
267 1 -0.032484375 0.000116666666667 0.012403125 0.285042
268 1 -0.032484375 0.000116666666667 0.013584375 0.19057
269 1 -0.032484375 0.000116666666667 0.014765625 0.192784
270 1 -0.032484375 0.000116666666667 0.015946875 0.13051
271 1 -0.032484375 0.000116666666667 0.017128125 0.12085
272 1 -0.032484375 0.000116666666667 0.018309375 0.088251
273 1 -0.031303125 -0.00261666666667 -0.019490625 0.25855
274 1 -0.031303125 -0.00261666666667 -0.018309375 0.232138
275 1 -0.031303125 -0.00261666666667 -0.017128125 0.349899
276 1 -0.031303125 -0.00261666666667 -0.015946875 0.348182
277 1 -0.031303125 -0.00261666666667 -0.014765625 0.432414
278 1 -0.031303125 -0.00261666666667 -0.013584375 0.444037
279 1 -0.031303125 -0.00261666666667 -0.012403125 0.48481
280 1 -0.031303125 -0.00261666666667 -0.011221875 0.505416
281 1 -0.031303125 -0.00261666666667 -0.010040625 0.513278
282 1 -0.031303125 -0.00261666666667 -0.008859375 0.538018
283 1 -0.031303125 -0.00261666666667 -0.007678125 0.526958
284 1 -0.031303125 -0.00261666666667 -0.006496875 0.556637
285 1 -0.031303125 -0.00261666666667 -0.005315625 0.534115
286 1 -0.031303125 -0.00261666666667 -0.004134375 0.565313
287 1 -0.031303125 -0.00261666666667 -0.002953125 0.53911
288 1 -0.031303125 -0.00261666666667 -0.001771875 0.573101
289 1 -0.031303125 -0.00261666666667 -0.000590625 0.547267
290 1 -0.031303125 -0.00261666666667 0.000590625 0.580743
291 1 -0.031303125 -0.00261666666667 0.001771875 0.552863
292 1 -0.031303125 -0.00261666666667 0.002953125 0.590173
293 1 -0.031303125 -0.00261666666667 0.004134375 0.555097
294 1 -0.031303125 -0.00261666666667 0.005315625 0.590691
295 1 -0.031303125 -0.00261666666667 0.006496875 0.545458
296 1 -0.031303125 -0.00261666666667 0.007678125 0.574448
297 1 -0.031303125 -0.00261666666667 0.008859375 0.517372
298 1 -0.031303125 -0.00261666666667 0.010040625 0.523749
299 1 -0.031303125 -0.00261666666667 0.011221875 0.458415
300 1 -0.031303125 -0.00261666666667 0.012403125 0.434673
301 1 -0.031303125 -0.00261666666667 0.013584375 0.377282
302 1 -0.031303125 -0.00261666666667 0.014765625 0.316922
303 1 -0.031303125 -0.00261666666667 0.015946875 0.280344
304 1 -0.031303125 -0.00261666666667 0.017128125 0.205702
305 1 -0.031303125 -0.00261666666667 0.018309375 0.19837
306 1 -0.031303125 -0.00261666666667 0.019490625 0.127124
307 1 -0.031303125 -0.00125 -0.019490625 0.25855
308 1 -0.031303125 -0.00125 -0.018309375 0.232138
309 1 -0.031303125 -0.00125 -0.017128125 0.349899
310 1 -0.031303125 -0.00125 -0.015946875 0.348182
311 1 -0.031303125 -0.00125 -0.014765625 0.432414
312 1 -0.031303125 -0.00125 -0.013584375 0.444037
313 1 -0.031303125 -0.00125 -0.012403125 0.48481
314 1 -0.031303125 -0.00125 -0.011221875 0.505416
315 1 -0.031303125 -0.00125 -0.010040625 0.513278
316 1 -0.031303125 -0.00125 -0.008859375 0.538018
317 1 -0.031303125 -0.00125 -0.007678125 0.526958
318 1 -0.031303125 -0.00125 -0.006496875 0.556637
319 1 -0.031303125 -0.00125 -0.005315625 0.534115
320 1 -0.031303125 -0.00125 -0.004134375 0.565313
321 1 -0.031303125 -0.00125 -0.002953125 0.53911
322 1 -0.031303125 -0.00125 -0.001771875 0.573101
323 1 -0.031303125 -0.00125 -0.000590625 0.547267
324 1 -0.031303125 -0.00125 0.000590625 0.580743
325 1 -0.031303125 -0.00125 0.001771875 0.552863
326 1 -0.031303125 -0.00125 0.002953125 0.590173
327 1 -0.031303125 -0.00125 0.004134375 0.555097
328 1 -0.031303125 -0.00125 0.005315625 0.590691
329 1 -0.031303125 -0.00125 0.006496875 0.545458
330 1 -0.031303125 -0.00125 0.007678125 0.574448
331 1 -0.031303125 -0.00125 0.008859375 0.517372
332 1 -0.031303125 -0.00125 0.010040625 0.523749
333 1 -0.031303125 -0.00125 0.011221875 0.458415
334 1 -0.031303125 -0.00125 0.012403125 0.434673
335 1 -0.031303125 -0.00125 0.013584375 0.377282
336 1 -0.031303125 -0.00125 0.014765625 0.316922
337 1 -0.031303125 -0.00125 0.015946875 0.280344
338 1 -0.031303125 -0.00125 0.017128125 0.205702
339 1 -0.031303125 -0.00125 0.018309375 0.19837
340 1 -0.031303125 -0.00125 0.019490625 0.127124
341 1 -0.031303125 0.000116666666667 -0.019490625 0.25855
342 1 -0.031303125 0.000116666666667 -0.018309375 0.232138
343 1 -0.031303125 0.000116666666667 -0.017128125 0.349899
344 1 -0.031303125 0.000116666666667 -0.015946875 0.348182
345 1 -0.031303125 0.000116666666667 -0.014765625 0.432414
346 1 -0.031303125 0.000116666666667 -0.013584375 0.444037
347 1 -0.031303125 0.000116666666667 -0.012403125 0.48481
348 1 -0.031303125 0.000116666666667 -0.011221875 0.505416
349 1 -0.031303125 0.000116666666667 -0.010040625 0.513278
350 1 -0.031303125 0.000116666666667 -0.008859375 0.538018
351 1 -0.031303125 0.000116666666667 -0.007678125 0.526958
352 1 -0.031303125 0.000116666666667 -0.006496875 0.556637
353 1 -0.031303125 0.000116666666667 -0.005315625 0.534115
354 1 -0.031303125 0.000116666666667 -0.004134375 0.565313
355 1 -0.031303125 0.000116666666667 -0.002953125 0.53911
356 1 -0.031303125 0.000116666666667 -0.001771875 0.573101
357 1 -0.031303125 0.000116666666667 -0.000590625 0.547267
358 1 -0.031303125 0.000116666666667 0.000590625 0.580743
359 1 -0.031303125 0.000116666666667 0.001771875 0.552863
360 1 -0.031303125 0.000116666666667 0.002953125 0.590173
361 1 -0.031303125 0.000116666666667 0.004134375 0.555097
362 1 -0.031303125 0.000116666666667 0.005315625 0.590691
363 1 -0.031303125 0.000116666666667 0.006496875 0.545458
364 1 -0.031303125 0.000116666666667 0.007678125 0.574448
365 1 -0.031303125 0.000116666666667 0.008859375 0.517372
366 1 -0.031303125 0.000116666666667 0.010040625 0.523749
367 1 -0.031303125 0.000116666666667 0.011221875 0.458415
368 1 -0.031303125 0.000116666666667 0.012403125 0.434673
369 1 -0.031303125 0.000116666666667 0.013584375 0.377282
370 1 -0.031303125 0.000116666666667 0.014765625 0.316922
371 1 -0.031303125 0.000116666666667 0.015946875 0.280344
372 1 -0.031303125 0.000116666666667 0.017128125 0.205702
373 1 -0.031303125 0.000116666666667 0.018309375 0.19837
374 1 -0.031303125 0.000116666666667 0.019490625 0.127124
375 1 -0.030121875 -0.00261666666667 -0.020671875 0.18795
376 1 -0.030121875 -0.00261666666667 -0.019490625 0.265692
377 1 -0.030121875 -0.00261666666667 -0.018309375 0.306467
378 1 -0.030121875 -0.00261666666667 -0.017128125 0.376623
379 1 -0.030121875 -0.00261666666667 -0.015946875 0.418614
380 1 -0.030121875 -0.00261666666667 -0.014765625 0.449084
381 1 -0.030121875 -0.00261666666667 -0.013584375 0.49882
382 1 -0.030121875 -0.00261666666667 -0.012403125 0.492679
383 1 -0.030121875 -0.00261666666667 -0.011221875 0.539172
384 1 -0.030121875 -0.00261666666667 -0.010040625 0.511508
385 1 -0.030121875 -0.00261666666667 -0.008859375 0.558241
386 1 -0.030121875 -0.00261666666667 -0.007678125 0.52135
387 1 -0.030121875 -0.00261666666667 -0.006496875 0.562988
388 1 -0.030121875 -0.00261666666667 -0.005315625 0.525725
389 1 -0.030121875 -0.00261666666667 -0.004134375 0.565927
390 1 -0.030121875 -0.00261666666667 -0.002953125 0.528168
391 1 -0.030121875 -0.00261666666667 -0.001771875 0.571673
392 1 -0.030121875 -0.00261666666667 -0.000590625 0.532515
393 1 -0.030121875 -0.00261666666667 0.000590625 0.581804
394 1 -0.030121875 -0.00261666666667 0.001771875 0.539491
395 1 -0.030121875 -0.00261666666667 0.002953125 0.595318
396 1 -0.030121875 -0.00261666666667 0.004134375 0.539171
397 1 -0.030121875 -0.00261666666667 0.005315625 0.611404
398 1 -0.030121875 -0.00261666666667 0.006496875 0.53075
399 1 -0.030121875 -0.00261666666667 0.007678125 0.610262
400 1 -0.030121875 -0.00261666666667 0.008859375 0.498475
401 1 -0.030121875 -0.00261666666667 0.010040625 0.585446
402 1 -0.030121875 -0.00261666666667 0.011221875 0.44727
403 1 -0.030121875 -0.00261666666667 0.012403125 0.528117
404 1 -0.030121875 -0.00261666666667 0.013584375 0.36988
405 1 -0.030121875 -0.00261666666667 0.014765625 0.420678
406 1 -0.030121875 -0.00261666666667 0.015946875 0.269727
407 1 -0.030121875 -0.00261666666667 0.017128125 0.285419
408 1 -0.030121875 -0.00261666666667 0.018309375 0.181129
409 1 -0.030121875 -0.00261666666667 0.019490625 0.177694
410 1 -0.030121875 -0.00261666666667 0.020671875 0.12336
411 1 -0.030121875 -0.00125 -0.020671875 0.18795
412 1 -0.030121875 -0.00125 -0.019490625 0.265692
413 1 -0.030121875 -0.00125 -0.018309375 0.306467
414 1 -0.030121875 -0.00125 -0.017128125 0.376623
415 1 -0.030121875 -0.00125 -0.015946875 0.418614
416 1 -0.030121875 -0.00125 -0.014765625 0.449084
417 1 -0.030121875 -0.00125 -0.013584375 0.49882
418 1 -0.030121875 -0.00125 -0.012403125 0.492679
419 1 -0.030121875 -0.00125 -0.011221875 0.539172
420 1 -0.030121875 -0.00125 -0.010040625 0.511508
421 1 -0.030121875 -0.00125 -0.008859375 0.558241
422 1 -0.030121875 -0.00125 -0.007678125 0.52135
423 1 -0.030121875 -0.00125 -0.006496875 0.562988
424 1 -0.030121875 -0.00125 -0.005315625 0.525725
425 1 -0.030121875 -0.00125 -0.004134375 0.565927
426 1 -0.030121875 -0.00125 -0.002953125 0.528168
427 1 -0.030121875 -0.00125 -0.001771875 0.571673
428 1 -0.030121875 -0.00125 -0.000590625 0.532515
429 1 -0.030121875 -0.00125 0.000590625 0.581804
430 1 -0.030121875 -0.00125 0.001771875 0.539491
431 1 -0.030121875 -0.00125 0.002953125 0.595318
432 1 -0.030121875 -0.00125 0.004134375 0.539171
433 1 -0.030121875 -0.00125 0.005315625 0.611404
434 1 -0.030121875 -0.00125 0.006496875 0.53075
435 1 -0.030121875 -0.00125 0.007678125 0.610262
436 1 -0.030121875 -0.00125 0.008859375 0.498475
437 1 -0.030121875 -0.00125 0.010040625 0.585446
438 1 -0.030121875 -0.00125 0.011221875 0.44727
439 1 -0.030121875 -0.00125 0.012403125 0.528117
440 1 -0.030121875 -0.00125 0.013584375 0.36988
441 1 -0.030121875 -0.00125 0.014765625 0.420678
442 1 -0.030121875 -0.00125 0.015946875 0.269727
443 1 -0.030121875 -0.00125 0.017128125 0.285419
444 1 -0.030121875 -0.00125 0.018309375 0.181129
445 1 -0.030121875 -0.00125 0.019490625 0.177694
446 1 -0.030121875 -0.00125 0.020671875 0.12336
447 1 -0.030121875 0.000116666666667 -0.020671875 0.18795
448 1 -0.030121875 0.000116666666667 -0.019490625 0.265692
449 1 -0.030121875 0.000116666666667 -0.018309375 0.306467
450 1 -0.030121875 0.000116666666667 -0.017128125 0.376623
451 1 -0.030121875 0.000116666666667 -0.015946875 0.418614
452 1 -0.030121875 0.000116666666667 -0.014765625 0.449084
453 1 -0.030121875 0.000116666666667 -0.013584375 0.49882
454 1 -0.030121875 0.000116666666667 -0.012403125 0.492679
455 1 -0.030121875 0.000116666666667 -0.011221875 0.539172
456 1 -0.030121875 0.000116666666667 -0.010040625 0.511508
457 1 -0.030121875 0.000116666666667 -0.008859375 0.558241
458 1 -0.030121875 0.000116666666667 -0.007678125 0.52135
459 1 -0.030121875 0.000116666666667 -0.006496875 0.562988
460 1 -0.030121875 0.000116666666667 -0.005315625 0.525725
461 1 -0.030121875 0.000116666666667 -0.004134375 0.565927
462 1 -0.030121875 0.000116666666667 -0.002953125 0.528168
463 1 -0.030121875 0.000116666666667 -0.001771875 0.571673
464 1 -0.030121875 0.000116666666667 -0.000590625 0.532515
465 1 -0.030121875 0.000116666666667 0.000590625 0.581804
466 1 -0.030121875 0.000116666666667 0.001771875 0.539491
467 1 -0.030121875 0.000116666666667 0.002953125 0.595318
468 1 -0.030121875 0.000116666666667 0.004134375 0.539171
469 1 -0.030121875 0.000116666666667 0.005315625 0.611404
470 1 -0.030121875 0.000116666666667 0.006496875 0.53075
471 1 -0.030121875 0.000116666666667 0.007678125 0.610262
472 1 -0.030121875 0.000116666666667 0.008859375 0.498475
473 1 -0.030121875 0.000116666666667 0.010040625 0.585446
474 1 -0.030121875 0.000116666666667 0.011221875 0.44727
475 1 -0.030121875 0.000116666666667 0.012403125 0.528117
476 1 -0.030121875 0.000116666666667 0.013584375 0.36988
477 1 -0.030121875 0.000116666666667 0.014765625 0.420678
478 1 -0.030121875 0.000116666666667 0.015946875 0.269727
479 1 -0.030121875 0.000116666666667 0.017128125 0.285419
480 1 -0.030121875 0.000116666666667 0.018309375 0.181129
481 1 -0.030121875 0.000116666666667 0.019490625 0.177694
482 1 -0.030121875 0.000116666666667 0.020671875 0.12336
483 1 -0.028940625 -0.00261666666667 -0.021853125 0.295716
484 1 -0.028940625 -0.00261666666667 -0.020671875 0.283812
485 1 -0.028940625 -0.00261666666667 -0.019490625 0.412192
486 1 -0.028940625 -0.00261666666667 -0.018309375 0.434067
487 1 -0.028940625 -0.00261666666667 -0.017128125 0.507427
488 1 -0.028940625 -0.00261666666667 -0.015946875 0.541379
489 1 -0.028940625 -0.00261666666667 -0.014765625 0.555065
490 1 -0.028940625 -0.00261666666667 -0.013584375 0.581696
491 1 -0.028940625 -0.00261666666667 -0.012403125 0.576205
492 1 -0.028940625 -0.00261666666667 -0.011221875 0.599085
493 1 -0.028940625 -0.00261666666667 -0.010040625 0.585903
494 1 -0.028940625 -0.00261666666667 -0.008859375 0.605146
495 1 -0.028940625 -0.00261666666667 -0.007678125 0.587226
496 1 -0.028940625 -0.00261666666667 -0.006496875 0.607269
497 1 -0.028940625 -0.00261666666667 -0.005315625 0.58836
498 1 -0.028940625 -0.00261666666667 -0.004134375 0.606495
499 1 -0.028940625 -0.00261666666667 -0.002953125 0.588729
500 1 -0.028940625 -0.00261666666667 -0.001771875 0.609679
501 1 -0.028940625 -0.00261666666667 -0.000590625 0.595726
502 1 -0.028940625 -0.00261666666667 0.000590625 0.616657
503 1 -0.028940625 -0.00261666666667 0.001771875 0.601949
504 1 -0.028940625 -0.00261666666667 0.002953125 0.627018
505 1 -0.028940625 -0.00261666666667 0.004134375 0.606434
506 1 -0.028940625 -0.00261666666667 0.005315625 0.631881
507 1 -0.028940625 -0.00261666666667 0.006496875 0.602025
508 1 -0.028940625 -0.00261666666667 0.007678125 0.631692
509 1 -0.028940625 -0.00261666666667 0.008859375 0.58809
510 1 -0.028940625 -0.00261666666667 0.010040625 0.621336
511 1 -0.028940625 -0.00261666666667 0.011221875 0.559474
512 1 -0.028940625 -0.00261666666667 0.012403125 0.597492
513 1 -0.028940625 -0.00261666666667 0.013584375 0.513665
514 1 -0.028940625 -0.00261666666667 0.014765625 0.525349
515 1 -0.028940625 -0.00261666666667 0.015946875 0.430381
516 1 -0.028940625 -0.00261666666667 0.017128125 0.403533
517 1 -0.028940625 -0.00261666666667 0.018309375 0.328336
518 1 -0.028940625 -0.00261666666667 0.019490625 0.275801
519 1 -0.028940625 -0.00261666666667 0.020671875 0.243017
520 1 -0.028940625 -0.00261666666667 0.021853125 0.181532
521 1 -0.028940625 -0.00125 -0.021853125 0.295716
522 1 -0.028940625 -0.00125 -0.020671875 0.283812
523 1 -0.028940625 -0.00125 -0.019490625 0.412192
524 1 -0.028940625 -0.00125 -0.018309375 0.434067
525 1 -0.028940625 -0.00125 -0.017128125 0.507427
526 1 -0.028940625 -0.00125 -0.015946875 0.541379
527 1 -0.028940625 -0.00125 -0.014765625 0.555065
528 1 -0.028940625 -0.00125 -0.013584375 0.581696
529 1 -0.028940625 -0.00125 -0.012403125 0.576205
530 1 -0.028940625 -0.00125 -0.011221875 0.599085
531 1 -0.028940625 -0.00125 -0.010040625 0.585903
532 1 -0.028940625 -0.00125 -0.008859375 0.605146
533 1 -0.028940625 -0.00125 -0.007678125 0.587226
534 1 -0.028940625 -0.00125 -0.006496875 0.607269
535 1 -0.028940625 -0.00125 -0.005315625 0.58836
536 1 -0.028940625 -0.00125 -0.004134375 0.606495
537 1 -0.028940625 -0.00125 -0.002953125 0.588729
538 1 -0.028940625 -0.00125 -0.001771875 0.609679