ITEM: TIMESTEP
0
ITEM: NUMBER OF ATOMS
9240
ITEM: BOX BOUNDS ss ss ss
-3.7007399999999996e-02 3.7007399999999996e-02
-2.0002499999999999e-03 2.5000000000000004e-07
-3.7007399999999996e-02 3.7007399999999996e-02
ITEM: ATOMS id type x y z c_1
0 1 -0.037209375 -0.00261666666667 -0.000590625 0.36265
1 1 -0.037209375 -0.00125 -0.000590625 0.36265
2 1 -0.037209375 0.000116666666667 -0.000590625 0.36265
3 1 -0.036028125 -0.00261666666667 -0.007678125 0.422207
4 1 -0.036028125 -0.00261666666667 -0.006496875 0.325073
5 1 -0.036028125 -0.00261666666667 -0.005315625 0.437611
6 1 -0.036028125 -0.00261666666667 -0.004134375 0.338004
7 1 -0.036028125 -0.00261666666667 -0.002953125 0.447755
8 1 -0.036028125 -0.00261666666667 -0.001771875 0.347997
9 1 -0.036028125 -0.00261666666667 -0.000590625 0.454306
10 1 -0.036028125 -0.00261666666667 0.000590625 0.352228
11 1 -0.036028125 -0.00261666666667 0.001771875 0.452809
12 1 -0.036028125 -0.00261666666667 0.002953125 0.349812
13 1 -0.036028125 -0.00261666666667 0.004134375 0.443446
14 1 -0.036028125 -0.00261666666667 0.005315625 0.337834
15 1 -0.036028125 -0.00261666666667 0.006496875 0.424701
16 1 -0.036028125 -0.00261666666667 0.007678125 0.319074
17 1 -0.036028125 -0.00125 -0.007678125 0.422207
18 1 -0.036028125 -0.00125 -0.006496875 0.325073
19 1 -0.036028125 -0.00125 -0.005315625 0.437611
20 1 -0.036028125 -0.00125 -0.004134375 0.338004
21 1 -0.036028125 -0.00125 -0.002953125 0.447755
22 1 -0.036028125 -0.00125 -0.001771875 0.347997
23 1 -0.036028125 -0.00125 -0.000590625 0.454306
24 1 -0.036028125 -0.00125 0.000590625 0.352228
25 1 -0.036028125 -0.00125 0.001771875 0.452809
26 1 -0.036028125 -0.00125 0.002953125 0.349812
27 1 -0.036028125 -0.00125 0.004134375 0.443446
28 1 -0.036028125 -0.00125 0.005315625 0.337834
29 1 -0.036028125 -0.00125 0.006496875 0.424701
30 1 -0.036028125 -0.00125 0.007678125 0.319074
31 1 -0.036028125 0.000116666666667 -0.007678125 0.422207
32 1 -0.036028125 0.000116666666667 -0.006496875 0.325073
33 1 -0.036028125 0.000116666666667 -0.005315625 0.437611
34 1 -0.036028125 0.000116666666667 -0.004134375 0.338004
35 1 -0.036028125 0.000116666666667 -0.002953125 0.447755
36 1 -0.036028125 0.000116666666667 -0.001771875 0.347997
37 1 -0.036028125 0.000116666666667 -0.000590625 0.454306
38 1 -0.036028125 0.000116666666667 0.000590625 0.352228
39 1 -0.036028125 0.000116666666667 0.001771875 0.452809
40 1 -0.036028125 0.000116666666667 0.002953125 0.349812
41 1 -0.036028125 0.000116666666667 0.004134375 0.443446
42 1 -0.036028125 0.000116666666667 0.005315625 0.337834
43 1 -0.036028125 0.000116666666667 0.006496875 0.424701
44 1 -0.036028125 0.000116666666667 0.007678125 0.319074
45 1 -0.034846875 -0.00261666666667 -0.011221875 0.277581
46 1 -0.034846875 -0.00261666666667 -0.010040625 0.318927
47 1 -0.034846875 -0.00261666666667 -0.008859375 0.307816
48 1 -0.034846875 -0.00261666666667 -0.007678125 0.335297
49 1 -0.034846875 -0.00261666666667 -0.006496875 0.332796
50 1 -0.034846875 -0.00261666666667 -0.005315625 0.347113
51 1 -0.034846875 -0.00261666666667 -0.004134375 0.355421
52 1 -0.034846875 -0.00261666666667 -0.002953125 0.356724
53 1 -0.034846875 -0.00261666666667 -0.001771875 0.372241
54 1 -0.034846875 -0.00261666666667 -0.000590625 0.361477
55 1 -0.034846875 -0.00261666666667 0.000590625 0.380833
56 1 -0.034846875 -0.00261666666667 0.001771875 0.360864
57 1 -0.034846875 -0.00261666666667 0.002953125 0.380215
58 1 -0.034846875 -0.00261666666667 0.004134375 0.348889
59 1 -0.034846875 -0.00261666666667 0.005315625 0.369173
60 1 -0.034846875 -0.00261666666667 0.006496875 0.330299
61 1 -0.034846875 -0.00261666666667 0.007678125 0.345153
62 1 -0.034846875 -0.00261666666667 0.008859375 0.304024
63 1 -0.034846875 -0.00261666666667 0.010040625 0.309619
64 1 -0.034846875 -0.00261666666667 0.011221875 0.275009
65 1 -0.034846875 -0.00125 -0.011221875 0.277581
66 1 -0.034846875 -0.00125 -0.010040625 0.318927
67 1 -0.034846875 -0.00125 -0.008859375 0.307816
68 1 -0.034846875 -0.00125 -0.007678125 0.335297
69 1 -0.034846875 -0.00125 -0.006496875 0.332796
70 1 -0.034846875 -0.00125 -0.005315625 0.347113
71 1 -0.034846875 -0.00125 -0.004134375 0.355421
72 1 -0.034846875 -0.00125 -0.002953125 0.356724
73 1 -0.034846875 -0.00125 -0.001771875 0.372241
74 1 -0.034846875 -0.00125 -0.000590625 0.361477
75 1 -0.034846875 -0.00125 0.000590625 0.380833
76 1 -0.034846875 -0.00125 0.001771875 0.360864
77 1 -0.034846875 -0.00125 0.002953125 0.380215
78 1 -0.034846875 -0.00125 0.004134375 0.348889
79 1 -0.034846875 -0.00125 0.005315625 0.369173
80 1 -0.034846875 -0.00125 0.006496875 0.330299
81 1 -0.034846875 -0.00125 0.007678125 0.345153
82 1 -0.034846875 -0.00125 0.008859375 0.304024
83 1 -0.034846875 -0.00125 0.010040625 0.309619
84 1 -0.034846875 -0.00125 0.011221875 0.275009
85 1 -0.034846875 0.000116666666667 -0.011221875 0.277581
86 1 -0.034846875 0.000116666666667 -0.010040625 0.318927
87 1 -0.034846875 0.000116666666667 -0.008859375 0.307816
88 1 -0.034846875 0.000116666666667 -0.007678125 0.335297
89 1 -0.034846875 0.000116666666667 -0.006496875 0.332796
90 1 -0.034846875 0.000116666666667 -0.005315625 0.347113
91 1 -0.034846875 0.000116666666667 -0.004134375 0.355421
92 1 -0.034846875 0.000116666666667 -0.002953125 0.356724
93 1 -0.034846875 0.000116666666667 -0.001771875 0.372241
94 1 -0.034846875 0.000116666666667 -0.000590625 0.361477
95 1 -0.034846875 0.000116666666667 0.000590625 0.380833
96 1 -0.034846875 0.000116666666667 0.001771875 0.360864
97 1 -0.034846875 0.000116666666667 0.002953125 0.380215
98 1 -0.034846875 0.000116666666667 0.004134375 0.348889
99 1 -0.034846875 0.000116666666667 0.005315625 0.369173
100 1 -0.034846875 0.000116666666667 0.006496875 0.330299
101 1 -0.034846875 0.000116666666667 0.007678125 0.345153
102 1 -0.034846875 0.000116666666667 0.008859375 0.304024
103 1 -0.034846875 0.000116666666667 0.010040625 0.309619
104 1 -0.034846875 0.000116666666667 0.011221875 0.275009
105 1 -0.033665625 -0.00261666666667 -0.013584375 0.300943
106 1 -0.033665625 -0.00261666666667 -0.012403125 0.414329
107 1 -0.033665625 -0.00261666666667 -0.011221875 0.345132
108 1 -0.033665625 -0.00261666666667 -0.010040625 0.452162
109 1 -0.033665625 -0.00261666666667 -0.008859375 0.381045
110 1 -0.033665625 -0.00261666666667 -0.007678125 0.480259
111 1 -0.033665625 -0.00261666666667 -0.006496875 0.410715
112 1 -0.033665625 -0.00261666666667 -0.005315625 0.502745
113 1 -0.033665625 -0.00261666666667 -0.004134375 0.433362
114 1 -0.033665625 -0.00261666666667 -0.002953125 0.517586
115 1 -0.033665625 -0.00261666666667 -0.001771875 0.449894
116 1 -0.033665625 -0.00261666666667 -0.000590625 0.527718
117 1 -0.033665625 -0.00261666666667 0.000590625 0.458432
118 1 -0.033665625 -0.00261666666667 0.001771875 0.52845
119 1 -0.033665625 -0.00261666666667 0.002953125 0.459476
120 1 -0.033665625 -0.00261666666667 0.004134375 0.519356
121 1 -0.033665625 -0.00261666666667 0.005315625 0.444984
122 1 -0.033665625 -0.00261666666667 0.006496875 0.495596
123 1 -0.033665625 -0.00261666666667 0.007678125 0.416247
124 1 -0.033665625 -0.00261666666667 0.008859375 0.462
125 1 -0.033665625 -0.00261666666667 0.010040625 0.373412
126 1 -0.033665625 -0.00261666666667 0.011221875 0.417232
127 1 -0.033665625 -0.00261666666667 0.012403125 0.324333
128 1 -0.033665625 -0.00261666666667 0.013584375 0.369948
129 1 -0.033665625 -0.00125 -0.013584375 0.300943
130 1 -0.033665625 -0.00125 -0.012403125 0.414329
131 1 -0.033665625 -0.00125 -0.011221875 0.345132
132 1 -0.033665625 -0.00125 -0.010040625 0.452162
133 1 -0.033665625 -0.00125 -0.008859375 0.381045
134 1 -0.033665625 -0.00125 -0.007678125 0.480259
135 1 -0.033665625 -0.00125 -0.006496875 0.410715
136 1 -0.033665625 -0.00125 -0.005315625 0.502745
137 1 -0.033665625 -0.00125 -0.004134375 0.433362
138 1 -0.033665625 -0.00125 -0.002953125 0.517586
139 1 -0.033665625 -0.00125 -0.001771875 0.449894
140 1 -0.033665625 -0.00125 -0.000590625 0.527718
141 1 -0.033665625 -0.00125 0.000590625 0.458432
142 1 -0.033665625 -0.00125 0.001771875 0.52845
143 1 -0.033665625 -0.00125 0.002953125 0.459476
144 1 -0.033665625 -0.00125 0.004134375 0.519356
145 1 -0.033665625 -0.00125 0.005315625 0.444984
146 1 -0.033665625 -0.00125 0.006496875 0.495596
147 1 -0.033665625 -0.00125 0.007678125 0.416247
148 1 -0.033665625 -0.00125 0.008859375 0.462
149 1 -0.033665625 -0.00125 0.010040625 0.373412
150 1 -0.033665625 -0.00125 0.011221875 0.417232
151 1 -0.033665625 -0.00125 0.012403125 0.324333
152 1 -0.033665625 -0.00125 0.013584375 0.369948
153 1 -0.033665625 0.000116666666667 -0.013584375 0.300943
154 1 -0.033665625 0.000116666666667 -0.012403125 0.414329
155 1 -0.033665625 0.000116666666667 -0.011221875 0.345132
156 1 -0.033665625 0.000116666666667 -0.010040625 0.452162
157 1 -0.033665625 0.000116666666667 -0.008859375 0.381045
158 1 -0.033665625 0.000116666666667 -0.007678125 0.480259
159 1 -0.033665625 0.000116666666667 -0.006496875 0.410715
160 1 -0.033665625 0.000116666666667 -0.005315625 0.502745
161 1 -0.033665625 0.000116666666667 -0.004134375 0.433362
162 1 -0.033665625 0.000116666666667 -0.002953125 0.517586
163 1 -0.033665625 0.000116666666667 -0.001771875 0.449894
164 1 -0.033665625 0.000116666666667 -0.000590625 0.527718
165 1 -0.033665625 0.000116666666667 0.000590625 0.458432
166 1 -0.033665625 0.000116666666667 0.001771875 0.52845
167 1 -0.033665625 0.000116666666667 0.002953125 0.459476
168 1 -0.033665625 0.000116666666667 0.004134375 0.519356
169 1 -0.033665625 0.000116666666667 0.005315625 0.444984
170 1 -0.033665625 0.000116666666667 0.006496875 0.495596
171 1 -0.033665625 0.000116666666667 0.007678125 0.416247
172 1 -0.033665625 0.000116666666667 0.008859375 0.462
173 1 -0.033665625 0.000116666666667 0.010040625 0.373412
174 1 -0.033665625 0.000116666666667 0.011221875 0.417232
175 1 -0.033665625 0.000116666666667 0.012403125 0.324333
176 1 -0.033665625 0.000116666666667 0.013584375 0.369948
177 1 -0.032484375 -0.00261666666667 -0.018309375 0.188121
178 1 -0.032484375 -0.00261666666667 -0.017128125 0.268019
179 1 -0.032484375 -0.00261666666667 -0.015946875 0.243546
180 1 -0.032484375 -0.00261666666667 -0.014765625 0.314769
181 1 -0.032484375 -0.00261666666667 -0.013584375 0.304104
182 1 -0.032484375 -0.00261666666667 -0.012403125 0.359795
183 1 -0.032484375 -0.00261666666667 -0.011221875 0.358441
184 1 -0.032484375 -0.00261666666667 -0.010040625 0.394708
185 1 -0.032484375 -0.00261666666667 -0.008859375 0.401073
186 1 -0.032484375 -0.00261666666667 -0.007678125 0.421523
187 1 -0.032484375 -0.00261666666667 -0.006496875 0.433912
188 1 -0.032484375 -0.00261666666667 -0.005315625 0.439387
189 1 -0.032484375 -0.00261666666667 -0.004134375 0.463991
190 1 -0.032484375 -0.00261666666667 -0.002953125 0.453624
191 1 -0.032484375 -0.00261666666667 -0.001771875 0.486607
192 1 -0.032484375 -0.00261666666667 -0.000590625 0.460067
193 1 -0.032484375 -0.00261666666667 0.000590625 0.500577
194 1 -0.032484375 -0.00261666666667 0.001771875 0.460791
195 1 -0.032484375 -0.00261666666667 0.002953125 0.503932
196 1 -0.032484375 -0.00261666666667 0.004134375 0.446797
197 1 -0.032484375 -0.00261666666667 0.005315625 0.493603
198 1 -0.032484375 -0.00261666666667 0.006496875 0.4219
199 1 -0.032484375 -0.00261666666667 0.007678125 0.464545
200 1 -0.032484375 -0.00261666666667 0.008859375 0.38342
201 1 -0.032484375 -0.00261666666667 0.010040625 0.41912
202 1 -0.032484375 -0.00261666666667 0.011221875 0.33883
203 1 -0.032484375 -0.00261666666667 0.012403125 0.360492
204 1 -0.032484375 -0.00261666666667 0.013584375 0.290361
205 1 -0.032484375 -0.00261666666667 0.014765625 0.295354
206 1 -0.032484375 -0.00261666666667 0.015946875 0.24569
207 1 -0.032484375 -0.00261666666667 0.017128125 0.236238
208 1 -0.032484375 -0.00261666666667 0.018309375 0.212257
209 1 -0.032484375 -0.00125 -0.018309375 0.188121
210 1 -0.032484375 -0.00125 -0.017128125 0.268019
211 1 -0.032484375 -0.00125 -0.015946875 0.243546
212 1 -0.032484375 -0.00125 -0.014765625 0.314769
213 1 -0.032484375 -0.00125 -0.013584375 0.304104
214 1 -0.032484375 -0.00125 -0.012403125 0.359795
215 1 -0.032484375 -0.00125 -0.011221875 0.358441
216 1 -0.032484375 -0.00125 -0.010040625 0.394708
217 1 -0.032484375 -0.00125 -0.008859375 0.401073
218 1 -0.032484375 -0.00125 -0.007678125 0.421523
219 1 -0.032484375 -0.00125 -0.006496875 0.433912
220 1 -0.032484375 -0.00125 -0.005315625 0.439387
221 1 -0.032484375 -0.00125 -0.004134375 0.463991
222 1 -0.032484375 -0.00125 -0.002953125 0.453624
223 1 -0.032484375 -0.00125 -0.001771875 0.486607
224 1 -0.032484375 -0.00125 -0.000590625 0.460067
225 1 -0.032484375 -0.00125 0.000590625 0.500577
226 1 -0.032484375 -0.00125 0.001771875 0.460791
227 1 -0.032484375 -0.00125 0.002953125 0.503932
228 1 -0.032484375 -0.00125 0.004134375 0.446797
229 1 -0.032484375 -0.00125 0.005315625 0.493603
230 1 -0.032484375 -0.00125 0.006496875 0.4219
231 1 -0.032484375 -0.00125 0.007678125 0.464545
232 1 -0.032484375 -0.00125 0.008859375 0.38342
233 1 -0.032484375 -0.00125 0.010040625 0.41912
234 1 -0.032484375 -0.00125 0.011221875 0.33883
235 1 -0.032484375 -0.00125 0.012403125 0.360492
236 1 -0.032484375 -0.00125 0.013584375 0.290361
237 1 -0.032484375 -0.00125 0.014765625 0.295354
238 1 -0.032484375 -0.00125 0.015946875 0.24569
239 1 -0.032484375 -0.00125 0.017128125 0.236238
240 1 -0.032484375 -0.00125 0.018309375 0.212257
241 1 -0.032484375 0.000116666666667 -0.018309375 0.188121
242 1 -0.032484375 0.000116666666667 -0.017128125 0.268019
243 1 -0.032484375 0.000116666666667 -0.015946875 0.243546
244 1 -0.032484375 0.000116666666667 -0.014765625 0.314769
245 1 -0.032484375 0.000116666666667 -0.013584375 0.304104
246 1 -0.032484375 0.000116666666667 -0.012403125 0.359795
247 1 -0.032484375 0.000116666666667 -0.011221875 0.358441
248 1 -0.032484375 0.000116666666667 -0.010040625 0.394708
249 1 -0.032484375 0.000116666666667 -0.008859375 0.401073
250 1 -0.032484375 0.000116666666667 -0.007678125 0.421523
251 1 -0.032484375 0.000116666666667 -0.006496875 0.433912
252 1 -0.032484375 0.000116666666667 -0.005315625 0.439387
253 1 -0.032484375 0.000116666666667 -0.004134375 0.463991
254 1 -0.032484375 0.000116666666667 -0.002953125 0.453624
255 1 -0.032484375 0.000116666666667 -0.001771875 0.486607
256 1 -0.032484375 0.000116666666667 -0.000590625 0.460067
257 1 -0.032484375 0.000116666666667 0.000590625 0.500577
258 1 -0.032484375 0.000116666666667 0.001771875 0.460791
259 1 -0.032484375 0.000116666666667 0.002953125 0.503932
260 1 -0.032484375 0.000116666666667 0.004134375 0.446797
261 1 -0.032484375 0.000116666666667 0.005315625 0.493603
262 1 -0.032484375 0.000116666666667 0.006496875 0.4219
263 1 -0.032484375 0.000116666666667 0.007678125 0.464545
264 1 -0.032484375 0.000116666666667 0.008859375 0.38342
265 1 -0.032484375 0.000116666666667 0.010040625 0.41912
266 1 -0.032484375 0.000116666666667 0.011221875 0.33883
267 1 -0.032484375 0.000116666666667 0.012403125 0.360492
268 1 -0.032484375 0.000116666666667 0.013584375 0.290361
269 1 -0.032484375 0.000116666666667 0.014765625 0.295354
270 1 -0.032484375 0.000116666666667 0.015946875 0.24569
271 1 -0.032484375 0.000116666666667 0.017128125 0.236238
272 1 -0.032484375 0.000116666666667 0.018309375 0.212257
273 1 -0.031303125 -0.00261666666667 -0.019490625 0.319602
274 1 -0.031303125 -0.00261666666667 -0.018309375 0.278433
275 1 -0.031303125 -0.00261666666667 -0.017128125 0.381742
276 1 -0.031303125 -0.00261666666667 -0.015946875 0.348234
277 1 -0.031303125 -0.00261666666667 -0.014765625 0.443972
278 1 -0.031303125 -0.00261666666667 -0.013584375 0.411692
279 1 -0.031303125 -0.00261666666667 -0.012403125 0.493669
280 1 -0.031303125 -0.00261666666667 -0.011221875 0.46116
281 1 -0.031303125 -0.00261666666667 -0.010040625 0.532046
282 1 -0.031303125 -0.00261666666667 -0.008859375 0.497137
283 1 -0.031303125 -0.00261666666667 -0.007678125 0.560344
284 1 -0.031303125 -0.00261666666667 -0.006496875 0.525977
285 1 -0.031303125 -0.00261666666667 -0.005315625 0.583379
286 1 -0.031303125 -0.00261666666667 -0.004134375 0.545429
287 1 -0.031303125 -0.00261666666667 -0.002953125 0.598657
288 1 -0.031303125 -0.00261666666667 -0.001771875 0.560793
289 1 -0.031303125 -0.00261666666667 -0.000590625 0.609328
290 1 -0.031303125 -0.00261666666667 0.000590625 0.568705
291 1 -0.031303125 -0.00261666666667 0.001771875 0.610389
292 1 -0.031303125 -0.00261666666667 0.002953125 0.570324
293 1 -0.031303125 -0.00261666666667 0.004134375 0.601914
294 1 -0.031303125 -0.00261666666667 0.005315625 0.558514
295 1 -0.031303125 -0.00261666666667 0.006496875 0.580257
296 1 -0.031303125 -0.00261666666667 0.007678125 0.538002
297 1 -0.031303125 -0.00261666666667 0.008859375 0.548365
298 1 -0.031303125 -0.00261666666667 0.010040625 0.504365
299 1 -0.031303125 -0.00261666666667 0.011221875 0.503436
300 1 -0.031303125 -0.00261666666667 0.012403125 0.451388
301 1 -0.031303125 -0.00261666666667 0.013584375 0.44727
302 1 -0.031303125 -0.00261666666667 0.014765625 0.381053
303 1 -0.031303125 -0.00261666666667 0.015946875 0.384102
304 1 -0.031303125 -0.00261666666667 0.017128125 0.312148
305 1 -0.031303125 -0.00261666666667 0.018309375 0.330461
306 1 -0.031303125 -0.00261666666667 0.019490625 0.257673
307 1 -0.031303125 -0.00125 -0.019490625 0.319602
308 1 -0.031303125 -0.00125 -0.018309375 0.278433
309 1 -0.031303125 -0.00125 -0.017128125 0.381742
310 1 -0.031303125 -0.00125 -0.015946875 0.348234
311 1 -0.031303125 -0.00125 -0.014765625 0.443972
312 1 -0.031303125 -0.00125 -0.013584375 0.411692
313 1 -0.031303125 -0.00125 -0.012403125 0.493669
314 1 -0.031303125 -0.00125 -0.011221875 0.46116
315 1 -0.031303125 -0.00125 -0.010040625 0.532046
316 1 -0.031303125 -0.00125 -0.008859375 0.497137
317 1 -0.031303125 -0.00125 -0.007678125 0.560344
318 1 -0.031303125 -0.00125 -0.006496875 0.525977
319 1 -0.031303125 -0.00125 -0.005315625 0.583379
320 1 -0.031303125 -0.00125 -0.004134375 0.545429
321 1 -0.031303125 -0.00125 -0.002953125 0.598657
322 1 -0.031303125 -0.00125 -0.001771875 0.560793
323 1 -0.031303125 -0.00125 -0.000590625 0.609328
324 1 -0.031303125 -0.00125 0.000590625 0.568705
325 1 -0.031303125 -0.00125 0.001771875 0.610389
326 1 -0.031303125 -0.00125 0.002953125 0.570324
327 1 -0.031303125 -0.00125 0.004134375 0.601914
328 1 -0.031303125 -0.00125 0.005315625 0.558514
329 1 -0.031303125 -0.00125 0.006496875 0.580257
330 1 -0.031303125 -0.00125 0.007678125 0.538002
331 1 -0.031303125 -0.00125 0.008859375 0.548365
332 1 -0.031303125 -0.00125 0.010040625 0.504365
333 1 -0.031303125 -0.00125 0.011221875 0.503436
334 1 -0.031303125 -0.00125 0.012403125 0.451388
335 1 -0.031303125 -0.00125 0.013584375 0.44727
336 1 -0.031303125 -0.00125 0.014765625 0.381053
337 1 -0.031303125 -0.00125 0.015946875 0.384102
338 1 -0.031303125 -0.00125 0.017128125 0.312148
339 1 -0.031303125 -0.00125 0.018309375 0.330461
340 1 -0.031303125 -0.00125 0.019490625 0.257673
341 1 -0.031303125 0.000116666666667 -0.019490625 0.319602
342 1 -0.031303125 0.000116666666667 -0.018309375 0.278433
343 1 -0.031303125 0.000116666666667 -0.017128125 0.381742
344 1 -0.031303125 0.000116666666667 -0.015946875 0.348234
345 1 -0.031303125 0.000116666666667 -0.014765625 0.443972
346 1 -0.031303125 0.000116666666667 -0.013584375 0.411692
347 1 -0.031303125 0.000116666666667 -0.012403125 0.493669
348 1 -0.031303125 0.000116666666667 -0.011221875 0.46116
349 1 -0.031303125 0.000116666666667 -0.010040625 0.532046
350 1 -0.031303125 0.000116666666667 -0.008859375 0.497137
351 1 -0.031303125 0.000116666666667 -0.007678125 0.560344
352 1 -0.031303125 0.000116666666667 -0.006496875 0.525977
353 1 -0.031303125 0.000116666666667 -0.005315625 0.583379
354 1 -0.031303125 0.000116666666667 -0.004134375 0.545429
355 1 -0.031303125 0.000116666666667 -0.002953125 0.598657
356 1 -0.031303125 0.000116666666667 -0.001771875 0.560793
357 1 -0.031303125 0.000116666666667 -0.000590625 0.609328
358 1 -0.031303125 0.000116666666667 0.000590625 0.568705
359 1 -0.031303125 0.000116666666667 0.001771875 0.610389
360 1 -0.031303125 0.000116666666667 0.002953125 0.570324
361 1 -0.031303125 0.000116666666667 0.004134375 0.601914
362 1 -0.031303125 0.000116666666667 0.005315625 0.558514
363 1 -0.031303125 0.000116666666667 0.006496875 0.580257
364 1 -0.031303125 0.000116666666667 0.007678125 0.538002
365 1 -0.031303125 0.000116666666667 0.008859375 0.548365
366 1 -0.031303125 0.000116666666667 0.010040625 0.504365
367 1 -0.031303125 0.000116666666667 0.011221875 0.503436
368 1 -0.031303125 0.000116666666667 0.012403125 0.451388
369 1 -0.031303125 0.000116666666667 0.013584375 0.44727
370 1 -0.031303125 0.000116666666667 0.014765625 0.381053
371 1 -0.031303125 0.000116666666667 0.015946875 0.384102
372 1 -0.031303125 0.000116666666667 0.017128125 0.312148
373 1 -0.031303125 0.000116666666667 0.018309375 0.330461
374 1 -0.031303125 0.000116666666667 0.019490625 0.257673
375 1 -0.030121875 -0.00261666666667 -0.020671875 0.21381
376 1 -0.030121875 -0.00261666666667 -0.019490625 0.295684
377 1 -0.030121875 -0.00261666666667 -0.018309375 0.281168
378 1 -0.030121875 -0.00261666666667 -0.017128125 0.359063
379 1 -0.030121875 -0.00261666666667 -0.015946875 0.356687
380 1 -0.030121875 -0.00261666666667 -0.014765625 0.420293
381 1 -0.030121875 -0.00261666666667 -0.013584375 0.426537
382 1 -0.030121875 -0.00261666666667 -0.012403125 0.469673
383 1 -0.030121875 -0.00261666666667 -0.011221875 0.481572
384 1 -0.030121875 -0.00261666666667 -0.010040625 0.502165
385 1 -0.030121875 -0.00261666666667 -0.008859375 0.524883
386 1 -0.030121875 -0.00261666666667 -0.007678125 0.526919
387 1 -0.030121875 -0.00261666666667 -0.006496875 0.557884
388 1 -0.030121875 -0.00261666666667 -0.005315625 0.544754
389 1 -0.030121875 -0.00261666666667 -0.004134375 0.586647
390 1 -0.030121875 -0.00261666666667 -0.002953125 0.559061
391 1 -0.030121875 -0.00261666666667 -0.001771875 0.608165
392 1 -0.030121875 -0.00261666666667 -0.000590625 0.566172
393 1 -0.030121875 -0.00261666666667 0.000590625 0.621955
394 1 -0.030121875 -0.00261666666667 0.001771875 0.567231
395 1 -0.030121875 -0.00261666666667 0.002953125 0.6262
396 1 -0.030121875 -0.00261666666667 0.004134375 0.551877
397 1 -0.030121875 -0.00261666666667 0.005315625 0.619889
398 1 -0.030121875 -0.00261666666667 0.006496875 0.527859
399 1 -0.030121875 -0.00261666666667 0.007678125 0.598501
400 1 -0.030121875 -0.00261666666667 0.008859375 0.48989
401 1 -0.030121875 -0.00261666666667 0.010040625 0.561962
402 1 -0.030121875 -0.00261666666667 0.011221875 0.446175
403 1 -0.030121875 -0.00261666666667 0.012403125 0.507017
404 1 -0.030121875 -0.00261666666667 0.013584375 0.387524
405 1 -0.030121875 -0.00261666666667 0.014765625 0.432408
406 1 -0.030121875 -0.00261666666667 0.015946875 0.324819
407 1 -0.030121875 -0.00261666666667 0.017128125 0.350684
408 1 -0.030121875 -0.00261666666667 0.018309375 0.276504
409 1 -0.030121875 -0.00261666666667 0.019490625 0.276424
410 1 -0.030121875 -0.00261666666667 0.020671875 0.239062
411 1 -0.030121875 -0.00125 -0.020671875 0.21381
412 1 -0.030121875 -0.00125 -0.019490625 0.295684
413 1 -0.030121875 -0.00125 -0.018309375 0.281168
414 1 -0.030121875 -0.00125 -0.017128125 0.359063
415 1 -0.030121875 -0.00125 -0.015946875 0.356687
416 1 -0.030121875 -0.00125 -0.014765625 0.420293
417 1 -0.030121875 -0.00125 -0.013584375 0.426537
418 1 -0.030121875 -0.00125 -0.012403125 0.469673
419 1 -0.030121875 -0.00125 -0.011221875 0.481572
420 1 -0.030121875 -0.00125 -0.010040625 0.502165
421 1 -0.030121875 -0.00125 -0.008859375 0.524883
422 1 -0.030121875 -0.00125 -0.007678125 0.526919
423 1 -0.030121875 -0.00125 -0.006496875 0.557884
424 1 -0.030121875 -0.00125 -0.005315625 0.544754
425 1 -0.030121875 -0.00125 -0.004134375 0.586647
426 1 -0.030121875 -0.00125 -0.002953125 0.559061
427 1 -0.030121875 -0.00125 -0.001771875 0.608165
428 1 -0.030121875 -0.00125 -0.000590625 0.566172
429 1 -0.030121875 -0.00125 0.000590625 0.621955
430 1 -0.030121875 -0.00125 0.001771875 0.567231
431 1 -0.030121875 -0.00125 0.002953125 0.6262
432 1 -0.030121875 -0.00125 0.004134375 0.551877
433 1 -0.030121875 -0.00125 0.005315625 0.619889
434 1 -0.030121875 -0.00125 0.006496875 0.527859
435 1 -0.030121875 -0.00125 0.007678125 0.598501
436 1 -0.030121875 -0.00125 0.008859375 0.48989
437 1 -0.030121875 -0.00125 0.010040625 0.561962
438 1 -0.030121875 -0.00125 0.011221875 0.446175
439 1 -0.030121875 -0.00125 0.012403125 0.507017
440 1 -0.030121875 -0.00125 0.013584375 0.387524
441 1 -0.030121875 -0.00125 0.014765625 0.432408
442 1 -0.030121875 -0.00125 0.015946875 0.324819
443 1 -0.030121875 -0.00125 0.017128125 0.350684
444 1 -0.030121875 -0.00125 0.018309375 0.276504
445 1 -0.030121875 -0.00125 0.019490625 0.276424
446 1 -0.030121875 -0.00125 0.020671875 0.239062
447 1 -0.030121875 0.000116666666667 -0.020671875 0.21381
448 1 -0.030121875 0.000116666666667 -0.019490625 0.295684
449 1 -0.030121875 0.000116666666667 -0.018309375 0.281168
450 1 -0.030121875 0.000116666666667 -0.017128125 0.359063
451 1 -0.030121875 0.000116666666667 -0.015946875 0.356687
452 1 -0.030121875 0.000116666666667 -0.014765625 0.420293
453 1 -0.030121875 0.000116666666667 -0.013584375 0.426537
454 1 -0.030121875 0.000116666666667 -0.012403125 0.469673
455 1 -0.030121875 0.000116666666667 -0.011221875 0.481572
456 1 -0.030121875 0.000116666666667 -0.010040625 0.502165
457 1 -0.030121875 0.000116666666667 -0.008859375 0.524883
458 1 -0.030121875 0.000116666666667 -0.007678125 0.526919
459 1 -0.030121875 0.000116666666667 -0.006496875 0.557884
460 1 -0.030121875 0.000116666666667 -0.005315625 0.544754
461 1 -0.030121875 0.000116666666667 -0.004134375 0.586647
462 1 -0.030121875 0.000116666666667 -0.002953125 0.559061
463 1 -0.030121875 0.000116666666667 -0.001771875 0.608165
464 1 -0.030121875 0.000116666666667 -0.000590625 0.566172
465 1 -0.030121875 0.000116666666667 0.000590625 0.621955
466 1 -0.030121875 0.000116666666667 0.001771875 0.567231
467 1 -0.030121875 0.000116666666667 0.002953125 0.6262
468 1 -0.030121875 0.000116666666667 0.004134375 0.551877
469 1 -0.030121875 0.000116666666667 0.005315625 0.619889
470 1 -0.030121875 0.000116666666667 0.006496875 0.527859
471 1 -0.030121875 0.000116666666667 0.007678125 0.598501
472 1 -0.030121875 0.000116666666667 0.008859375 0.48989
473 1 -0.030121875 0.000116666666667 0.010040625 0.561962
474 1 -0.030121875 0.000116666666667 0.011221875 0.446175
475 1 -0.030121875 0.000116666666667 0.012403125 0.507017
476 1 -0.030121875 0.000116666666667 0.013584375 0.387524
477 1 -0.030121875 0.000116666666667 0.014765625 0.432408
478 1 -0.030121875 0.000116666666667 0.015946875 0.324819
479 1 -0.030121875 0.000116666666667 0.017128125 0.350684
480 1 -0.030121875 0.000116666666667 0.018309375 0.276504
481 1 -0.030121875 0.000116666666667 0.019490625 0.276424
482 1 -0.030121875 0.000116666666667 0.020671875 0.239062
483 1 -0.028940625 -0.00261666666667 -0.021853125 0.352439
484 1 -0.028940625 -0.00261666666667 -0.020671875 0.324228
485 1 -0.028940625 -0.00261666666667 -0.019490625 0.418903
486 1 -0.028940625 -0.00261666666667 -0.018309375 0.399271
487 1 -0.028940625 -0.00261666666667 -0.017128125 0.484402
488 1 -0.028940625 -0.00261666666667 -0.015946875 0.465503
489 1 -0.028940625 -0.00261666666667 -0.014765625 0.541841
490 1 -0.028940625 -0.00261666666667 -0.013584375 0.518196
491 1 -0.028940625 -0.00261666666667 -0.012403125 0.58852
492 1 -0.028940625 -0.00261666666667 -0.011221875 0.560323
493 1 -0.028940625 -0.00261666666667 -0.010040625 0.62447
494 1 -0.028940625 -0.00261666666667 -0.008859375 0.591426
495 1 -0.028940625 -0.00261666666667 -0.007678125 0.650636
496 1 -0.028940625 -0.00261666666667 -0.006496875 0.617529
497 1 -0.028940625 -0.00261666666667 -0.005315625 0.672187
498 1 -0.028940625 -0.00261666666667 -0.004134375 0.635945
499 1 -0.028940625 -0.00261666666667 -0.002953125 0.685952
500 1 -0.028940625 -0.00261666666667 -0.001771875 0.650289
501 1 -0.028940625 -0.00261666666667 -0.000590625 0.695469
502 1 -0.028940625 -0.00261666666667 0.000590625 0.657635
503 1 -0.028940625 -0.00261666666667 0.001771875 0.695716
504 1 -0.028940625 -0.00261666666667 0.002953125 0.659029
505 1 -0.028940625 -0.00261666666667 0.004134375 0.687095
506 1 -0.028940625 -0.00261666666667 0.005315625 0.647386
507 1 -0.028940625 -0.00261666666667 0.006496875 0.66579
508 1 -0.028940625 -0.00261666666667 0.007678125 0.627482
509 1 -0.028940625 -0.00261666666667 0.008859375 0.63491
510 1 -0.028940625 -0.00261666666667 0.010040625 0.595066
511 1 -0.028940625 -0.00261666666667 0.011221875 0.590734
512 1 -0.028940625 -0.00261666666667 0.012403125 0.553477
513 1 -0.028940625 -0.00261666666667 0.013584375 0.538702
514 1 -0.028940625 -0.00261666666667 0.014765625 0.501674
515 1 -0.028940625 -0.00261666666667 0.015946875 0.478221
516 1 -0.028940625 -0.00261666666667 0.017128125 0.434897
517 1 -0.028940625 -0.00261666666667 0.018309375 0.416094
518 1 -0.028940625 -0.00261666666667 0.019490625 0.367916
519 1 -0.028940625 -0.00261666666667 0.020671875 0.364124
520 1 -0.028940625 -0.00261666666667 0.021853125 0.309212
521 1 -0.028940625 -0.00125 -0.021853125 0.352439
522 1 -0.028940625 -0.00125 -0.020671875 0.324228
523 1 -0.028940625 -0.00125 -0.019490625 0.418903
524 1 -0.028940625 -0.00125 -0.018309375 0.399271
525 1 -0.028940625 -0.00125 -0.017128125 0.484402
526 1 -0.028940625 -0.00125 -0.015946875 0.465503
527 1 -0.028940625 -0.00125 -0.014765625 0.541841
528 1 -0.028940625 -0.00125 -0.013584375 0.518196
529 1 -0.028940625 -0.00125 -0.012403125 0.58852
530 1 -0.028940625 -0.00125 -0.011221875 0.560323
531 1 -0.028940625 -0.00125 -0.010040625 0.62447
532 1 -0.028940625 -0.00125 -0.008859375 0.591426
533 1 -0.028940625 -0.00125 -0.007678125 0.650636
534 1 -0.028940625 -0.00125 -0.006496875 0.617529
535 1 -0.028940625 -0.00125 -0.005315625 0.672187
536 1 -0.028940625 -0.00125 -0.004134375 0.635945
537 1 -0.028940625 -0.00125 -0.002953125 0.685952