ITEM: TIMESTEP
0
ITEM: NUMBER OF ATOMS
9240
ITEM: BOX BOUNDS ss ss ss
-3.7007399999999996e-02 3.7007399999999996e-02
-2.0002499999999999e-03 2.5000000000000004e-07
-3.7007399999999996e-02 3.7007399999999996e-02
ITEM: ATOMS id type x y z c_1
0 1 -0.037209375 -0.00261666666667 -0.000590625 0.330737
1 1 -0.037209375 -0.00125 -0.000590625 0.330737
2 1 -0.037209375 0.000116666666667 -0.000590625 0.330737
3 1 -0.036028125 -0.00261666666667 -0.007678125 0.323309
4 1 -0.036028125 -0.00261666666667 -0.006496875 0.231388
5 1 -0.036028125 -0.00261666666667 -0.005315625 0.34424
6 1 -0.036028125 -0.00261666666667 -0.004134375 0.252597
7 1 -0.036028125 -0.00261666666667 -0.002953125 0.361894
8 1 -0.036028125 -0.00261666666667 -0.001771875 0.273013
9 1 -0.036028125 -0.00261666666667 -0.000590625 0.37795
10 1 -0.036028125 -0.00261666666667 0.000590625 0.288192
11 1 -0.036028125 -0.00261666666667 0.001771875 0.385665
12 1 -0.036028125 -0.00261666666667 0.002953125 0.294907
13 1 -0.036028125 -0.00261666666667 0.004134375 0.384152
14 1 -0.036028125 -0.00261666666667 0.005315625 0.28798
15 1 -0.036028125 -0.00261666666667 0.006496875 0.370311
16 1 -0.036028125 -0.00261666666667 0.007678125 0.27097
17 1 -0.036028125 -0.00125 -0.007678125 0.323309
18 1 -0.036028125 -0.00125 -0.006496875 0.231388
19 1 -0.036028125 -0.00125 -0.005315625 0.34424
20 1 -0.036028125 -0.00125 -0.004134375 0.252597
21 1 -0.036028125 -0.00125 -0.002953125 0.361894
22 1 -0.036028125 -0.00125 -0.001771875 0.273013
23 1 -0.036028125 -0.00125 -0.000590625 0.37795
24 1 -0.036028125 -0.00125 0.000590625 0.288192
25 1 -0.036028125 -0.00125 0.001771875 0.385665
26 1 -0.036028125 -0.00125 0.002953125 0.294907
27 1 -0.036028125 -0.00125 0.004134375 0.384152
28 1 -0.036028125 -0.00125 0.005315625 0.28798
29 1 -0.036028125 -0.00125 0.006496875 0.370311
30 1 -0.036028125 -0.00125 0.007678125 0.27097
31 1 -0.036028125 0.000116666666667 -0.007678125 0.323309
32 1 -0.036028125 0.000116666666667 -0.006496875 0.231388
33 1 -0.036028125 0.000116666666667 -0.005315625 0.34424
34 1 -0.036028125 0.000116666666667 -0.004134375 0.252597
35 1 -0.036028125 0.000116666666667 -0.002953125 0.361894
36 1 -0.036028125 0.000116666666667 -0.001771875 0.273013
37 1 -0.036028125 0.000116666666667 -0.000590625 0.37795
38 1 -0.036028125 0.000116666666667 0.000590625 0.288192
39 1 -0.036028125 0.000116666666667 0.001771875 0.385665
40 1 -0.036028125 0.000116666666667 0.002953125 0.294907
41 1 -0.036028125 0.000116666666667 0.004134375 0.384152
42 1 -0.036028125 0.000116666666667 0.005315625 0.28798
43 1 -0.036028125 0.000116666666667 0.006496875 0.370311
44 1 -0.036028125 0.000116666666667 0.007678125 0.27097
45 1 -0.034846875 -0.00261666666667 -0.011221875 0.162108
46 1 -0.034846875 -0.00261666666667 -0.010040625 0.208723
47 1 -0.034846875 -0.00261666666667 -0.008859375 0.187441
48 1 -0.034846875 -0.00261666666667 -0.007678125 0.228117
49 1 -0.034846875 -0.00261666666667 -0.006496875 0.213137
50 1 -0.034846875 -0.00261666666667 -0.005315625 0.247448
51 1 -0.034846875 -0.00261666666667 -0.004134375 0.241354
52 1 -0.034846875 -0.00261666666667 -0.002953125 0.265712
53 1 -0.034846875 -0.00261666666667 -0.001771875 0.268359
54 1 -0.034846875 -0.00261666666667 -0.000590625 0.280372
55 1 -0.034846875 -0.00261666666667 0.000590625 0.290213
56 1 -0.034846875 -0.00261666666667 0.001771875 0.290645
57 1 -0.034846875 -0.00261666666667 0.002953125 0.301578
58 1 -0.034846875 -0.00261666666667 0.004134375 0.288636
59 1 -0.034846875 -0.00261666666667 0.005315625 0.299488
60 1 -0.034846875 -0.00261666666667 0.006496875 0.276029
61 1 -0.034846875 -0.00261666666667 0.007678125 0.281114
62 1 -0.034846875 -0.00261666666667 0.008859375 0.253385
63 1 -0.034846875 -0.00261666666667 0.010040625 0.251007
64 1 -0.034846875 -0.00261666666667 0.011221875 0.228563
65 1 -0.034846875 -0.00125 -0.011221875 0.162108
66 1 -0.034846875 -0.00125 -0.010040625 0.208723
67 1 -0.034846875 -0.00125 -0.008859375 0.187441
68 1 -0.034846875 -0.00125 -0.007678125 0.228117
69 1 -0.034846875 -0.00125 -0.006496875 0.213137
70 1 -0.034846875 -0.00125 -0.005315625 0.247448
71 1 -0.034846875 -0.00125 -0.004134375 0.241354
72 1 -0.034846875 -0.00125 -0.002953125 0.265712
73 1 -0.034846875 -0.00125 -0.001771875 0.268359
74 1 -0.034846875 -0.00125 -0.000590625 0.280372
75 1 -0.034846875 -0.00125 0.000590625 0.290213
76 1 -0.034846875 -0.00125 0.001771875 0.290645
77 1 -0.034846875 -0.00125 0.002953125 0.301578
78 1 -0.034846875 -0.00125 0.004134375 0.288636
79 1 -0.034846875 -0.00125 0.005315625 0.299488
80 1 -0.034846875 -0.00125 0.006496875 0.276029
81 1 -0.034846875 -0.00125 0.007678125 0.281114
82 1 -0.034846875 -0.00125 0.008859375 0.253385
83 1 -0.034846875 -0.00125 0.010040625 0.251007
84 1 -0.034846875 -0.00125 0.011221875 0.228563
85 1 -0.034846875 0.000116666666667 -0.011221875 0.162108
86 1 -0.034846875 0.000116666666667 -0.010040625 0.208723
87 1 -0.034846875 0.000116666666667 -0.008859375 0.187441
88 1 -0.034846875 0.000116666666667 -0.007678125 0.228117
89 1 -0.034846875 0.000116666666667 -0.006496875 0.213137
90 1 -0.034846875 0.000116666666667 -0.005315625 0.247448
91 1 -0.034846875 0.000116666666667 -0.004134375 0.241354
92 1 -0.034846875 0.000116666666667 -0.002953125 0.265712
93 1 -0.034846875 0.000116666666667 -0.001771875 0.268359
94 1 -0.034846875 0.000116666666667 -0.000590625 0.280372
95 1 -0.034846875 0.000116666666667 0.000590625 0.290213
96 1 -0.034846875 0.000116666666667 0.001771875 0.290645
97 1 -0.034846875 0.000116666666667 0.002953125 0.301578
98 1 -0.034846875 0.000116666666667 0.004134375 0.288636
99 1 -0.034846875 0.000116666666667 0.005315625 0.299488
100 1 -0.034846875 0.000116666666667 0.006496875 0.276029
101 1 -0.034846875 0.000116666666667 0.007678125 0.281114
102 1 -0.034846875 0.000116666666667 0.008859375 0.253385
103 1 -0.034846875 0.000116666666667 0.010040625 0.251007
104 1 -0.034846875 0.000116666666667 0.011221875 0.228563
105 1 -0.033665625 -0.00261666666667 -0.013584375 0.166151
106 1 -0.033665625 -0.00261666666667 -0.012403125 0.287081
107 1 -0.033665625 -0.00261666666667 -0.011221875 0.205912
108 1 -0.033665625 -0.00261666666667 -0.010040625 0.324966
109 1 -0.033665625 -0.00261666666667 -0.008859375 0.246279
110 1 -0.033665625 -0.00261666666667 -0.007678125 0.358018
111 1 -0.033665625 -0.00261666666667 -0.006496875 0.28702
112 1 -0.033665625 -0.00261666666667 -0.005315625 0.390667
113 1 -0.033665625 -0.00261666666667 -0.004134375 0.325089
114 1 -0.033665625 -0.00261666666667 -0.002953125 0.41787
115 1 -0.033665625 -0.00261666666667 -0.001771875 0.359565
116 1 -0.033665625 -0.00261666666667 -0.000590625 0.441747
117 1 -0.033665625 -0.00261666666667 0.000590625 0.384446
118 1 -0.033665625 -0.00261666666667 0.001771875 0.453865
119 1 -0.033665625 -0.00261666666667 0.002953125 0.396222
120 1 -0.033665625 -0.00261666666667 0.004134375 0.45335
121 1 -0.033665625 -0.00261666666667 0.005315625 0.386717
122 1 -0.033665625 -0.00261666666667 0.006496875 0.435356
123 1 -0.033665625 -0.00261666666667 0.007678125 0.358616
124 1 -0.033665625 -0.00261666666667 0.008859375 0.404575
125 1 -0.033665625 -0.00261666666667 0.010040625 0.314639
126 1 -0.033665625 -0.00261666666667 0.011221875 0.361776
127 1 -0.033665625 -0.00261666666667 0.012403125 0.263273
128 1 -0.033665625 -0.00261666666667 0.013584375 0.315316
129 1 -0.033665625 -0.00125 -0.013584375 0.166151
130 1 -0.033665625 -0.00125 -0.012403125 0.287081
131 1 -0.033665625 -0.00125 -0.011221875 0.205912
132 1 -0.033665625 -0.00125 -0.010040625 0.324966
133 1 -0.033665625 -0.00125 -0.008859375 0.246279
134 1 -0.033665625 -0.00125 -0.007678125 0.358018
135 1 -0.033665625 -0.00125 -0.006496875 0.28702
136 1 -0.033665625 -0.00125 -0.005315625 0.390667
137 1 -0.033665625 -0.00125 -0.004134375 0.325089
138 1 -0.033665625 -0.00125 -0.002953125 0.41787
139 1 -0.033665625 -0.00125 -0.001771875 0.359565
140 1 -0.033665625 -0.00125 -0.000590625 0.441747
141 1 -0.033665625 -0.00125 0.000590625 0.384446
142 1 -0.033665625 -0.00125 0.001771875 0.453865
143 1 -0.033665625 -0.00125 0.002953125 0.396222
144 1 -0.033665625 -0.00125 0.004134375 0.45335
145 1 -0.033665625 -0.00125 0.005315625 0.386717
146 1 -0.033665625 -0.00125 0.006496875 0.435356
147 1 -0.033665625 -0.00125 0.007678125 0.358616
148 1 -0.033665625 -0.00125 0.008859375 0.404575
149 1 -0.033665625 -0.00125 0.010040625 0.314639
150 1 -0.033665625 -0.00125 0.011221875 0.361776
151 1 -0.033665625 -0.00125 0.012403125 0.263273
152 1 -0.033665625 -0.00125 0.013584375 0.315316
153 1 -0.033665625 0.000116666666667 -0.013584375 0.166151
154 1 -0.033665625 0.000116666666667 -0.012403125 0.287081
155 1 -0.033665625 0.000116666666667 -0.011221875 0.205912
156 1 -0.033665625 0.000116666666667 -0.010040625 0.324966
157 1 -0.033665625 0.000116666666667 -0.008859375 0.246279
158 1 -0.033665625 0.000116666666667 -0.007678125 0.358018
159 1 -0.033665625 0.000116666666667 -0.006496875 0.28702
160 1 -0.033665625 0.000116666666667 -0.005315625 0.390667
161 1 -0.033665625 0.000116666666667 -0.004134375 0.325089
162 1 -0.033665625 0.000116666666667 -0.002953125 0.41787
163 1 -0.033665625 0.000116666666667 -0.001771875 0.359565
164 1 -0.033665625 0.000116666666667 -0.000590625 0.441747
165 1 -0.033665625 0.000116666666667 0.000590625 0.384446
166 1 -0.033665625 0.000116666666667 0.001771875 0.453865
167 1 -0.033665625 0.000116666666667 0.002953125 0.396222
168 1 -0.033665625 0.000116666666667 0.004134375 0.45335
169 1 -0.033665625 0.000116666666667 0.005315625 0.386717
170 1 -0.033665625 0.000116666666667 0.006496875 0.435356
171 1 -0.033665625 0.000116666666667 0.007678125 0.358616
172 1 -0.033665625 0.000116666666667 0.008859375 0.404575
173 1 -0.033665625 0.000116666666667 0.010040625 0.314639
174 1 -0.033665625 0.000116666666667 0.011221875 0.361776
175 1 -0.033665625 0.000116666666667 0.012403125 0.263273
176 1 -0.033665625 0.000116666666667 0.013584375 0.315316
177 1 -0.032484375 -0.00261666666667 -0.018309375 0.0993179
178 1 -0.032484375 -0.00261666666667 -0.017128125 0.155551
179 1 -0.032484375 -0.00261666666667 -0.015946875 0.124288
180 1 -0.032484375 -0.00261666666667 -0.014765625 0.185143
181 1 -0.032484375 -0.00261666666667 -0.013584375 0.16311
182 1 -0.032484375 -0.00261666666667 -0.012403125 0.222998
183 1 -0.032484375 -0.00261666666667 -0.011221875 0.208217
184 1 -0.032484375 -0.00261666666667 -0.010040625 0.258281
185 1 -0.032484375 -0.00261666666667 -0.008859375 0.252851
186 1 -0.032484375 -0.00261666666667 -0.007678125 0.291588
187 1 -0.032484375 -0.00261666666667 -0.006496875 0.297693
188 1 -0.032484375 -0.00261666666667 -0.005315625 0.322819
189 1 -0.032484375 -0.00261666666667 -0.004134375 0.341749
190 1 -0.032484375 -0.00261666666667 -0.002953125 0.349884
191 1 -0.032484375 -0.00261666666667 -0.001771875 0.378028
192 1 -0.032484375 -0.00261666666667 -0.000590625 0.371168
193 1 -0.032484375 -0.00261666666667 0.000590625 0.405771
194 1 -0.032484375 -0.00261666666667 0.001771875 0.385199
195 1 -0.032484375 -0.00261666666667 0.002953125 0.420877
196 1 -0.032484375 -0.00261666666667 0.004134375 0.382066
197 1 -0.032484375 -0.00261666666667 0.005315625 0.421761
198 1 -0.032484375 -0.00261666666667 0.006496875 0.363854
199 1 -0.032484375 -0.00261666666667 0.007678125 0.40144
200 1 -0.032484375 -0.00261666666667 0.008859375 0.329016
201 1 -0.032484375 -0.00261666666667 0.010040625 0.358944
202 1 -0.032484375 -0.00261666666667 0.011221875 0.28745
203 1 -0.032484375 -0.00261666666667 0.012403125 0.299949
204 1 -0.032484375 -0.00261666666667 0.013584375 0.241184
205 1 -0.032484375 -0.00261666666667 0.014765625 0.236674
206 1 -0.032484375 -0.00261666666667 0.015946875 0.198232
207 1 -0.032484375 -0.00261666666667 0.017128125 0.180826
208 1 -0.032484375 -0.00261666666667 0.018309375 0.16419
209 1 -0.032484375 -0.00125 -0.018309375 0.0993179
210 1 -0.032484375 -0.00125 -0.017128125 0.155551
211 1 -0.032484375 -0.00125 -0.015946875 0.124288
212 1 -0.032484375 -0.00125 -0.014765625 0.185143
213 1 -0.032484375 -0.00125 -0.013584375 0.16311
214 1 -0.032484375 -0.00125 -0.012403125 0.222998
215 1 -0.032484375 -0.00125 -0.011221875 0.208217
216 1 -0.032484375 -0.00125 -0.010040625 0.258281
217 1 -0.032484375 -0.00125 -0.008859375 0.252851
218 1 -0.032484375 -0.00125 -0.007678125 0.291588
219 1 -0.032484375 -0.00125 -0.006496875 0.297693
220 1 -0.032484375 -0.00125 -0.005315625 0.322819
221 1 -0.032484375 -0.00125 -0.004134375 0.341749
222 1 -0.032484375 -0.00125 -0.002953125 0.349884
223 1 -0.032484375 -0.00125 -0.001771875 0.378028
224 1 -0.032484375 -0.00125 -0.000590625 0.371168
225 1 -0.032484375 -0.00125 0.000590625 0.405771
226 1 -0.032484375 -0.00125 0.001771875 0.385199
227 1 -0.032484375 -0.00125 0.002953125 0.420877
228 1 -0.032484375 -0.00125 0.004134375 0.382066
229 1 -0.032484375 -0.00125 0.005315625 0.421761
230 1 -0.032484375 -0.00125 0.006496875 0.363854
231 1 -0.032484375 -0.00125 0.007678125 0.40144
232 1 -0.032484375 -0.00125 0.008859375 0.329016
233 1 -0.032484375 -0.00125 0.010040625 0.358944
234 1 -0.032484375 -0.00125 0.011221875 0.28745
235 1 -0.032484375 -0.00125 0.012403125 0.299949
236 1 -0.032484375 -0.00125 0.013584375 0.241184
237 1 -0.032484375 -0.00125 0.014765625 0.236674
238 1 -0.032484375 -0.00125 0.015946875 0.198232
239 1 -0.032484375 -0.00125 0.017128125 0.180826
240 1 -0.032484375 -0.00125 0.018309375 0.16419
241 1 -0.032484375 0.000116666666667 -0.018309375 0.0993179
242 1 -0.032484375 0.000116666666667 -0.017128125 0.155551
243 1 -0.032484375 0.000116666666667 -0.015946875 0.124288
244 1 -0.032484375 0.000116666666667 -0.014765625 0.185143
245 1 -0.032484375 0.000116666666667 -0.013584375 0.16311
246 1 -0.032484375 0.000116666666667 -0.012403125 0.222998
247 1 -0.032484375 0.000116666666667 -0.011221875 0.208217
248 1 -0.032484375 0.000116666666667 -0.010040625 0.258281
249 1 -0.032484375 0.000116666666667 -0.008859375 0.252851
250 1 -0.032484375 0.000116666666667 -0.007678125 0.291588
251 1 -0.032484375 0.000116666666667 -0.006496875 0.297693
252 1 -0.032484375 0.000116666666667 -0.005315625 0.322819
253 1 -0.032484375 0.000116666666667 -0.004134375 0.341749
254 1 -0.032484375 0.000116666666667 -0.002953125 0.349884
255 1 -0.032484375 0.000116666666667 -0.001771875 0.378028
256 1 -0.032484375 0.000116666666667 -0.000590625 0.371168
257 1 -0.032484375 0.000116666666667 0.000590625 0.405771
258 1 -0.032484375 0.000116666666667 0.001771875 0.385199
259 1 -0.032484375 0.000116666666667 0.002953125 0.420877
260 1 -0.032484375 0.000116666666667 0.004134375 0.382066
261 1 -0.032484375 0.000116666666667 0.005315625 0.421761
262 1 -0.032484375 0.000116666666667 0.006496875 0.363854
263 1 -0.032484375 0.000116666666667 0.007678125 0.40144
264 1 -0.032484375 0.000116666666667 0.008859375 0.329016
265 1 -0.032484375 0.000116666666667 0.010040625 0.358944
266 1 -0.032484375 0.000116666666667 0.011221875 0.28745
267 1 -0.032484375 0.000116666666667 0.012403125 0.299949
268 1 -0.032484375 0.000116666666667 0.013584375 0.241184
269 1 -0.032484375 0.000116666666667 0.014765625 0.236674
270 1 -0.032484375 0.000116666666667 0.015946875 0.198232
271 1 -0.032484375 0.000116666666667 0.017128125 0.180826
272 1 -0.032484375 0.000116666666667 0.018309375 0.16419
273 1 -0.031303125 -0.00261666666667 -0.019490625 0.213925
274 1 -0.031303125 -0.00261666666667 -0.018309375 0.150664
275 1 -0.031303125 -0.00261666666667 -0.017128125 0.262616
276 1 -0.031303125 -0.00261666666667 -0.015946875 0.206512
277 1 -0.031303125 -0.00261666666667 -0.014765625 0.3188
278 1 -0.031303125 -0.00261666666667 -0.013584375 0.27068
279 1 -0.031303125 -0.00261666666667 -0.012403125 0.373557
280 1 -0.031303125 -0.00261666666667 -0.011221875 0.335823
281 1 -0.031303125 -0.00261666666667 -0.010040625 0.421743
282 1 -0.031303125 -0.00261666666667 -0.008859375 0.392618
283 1 -0.031303125 -0.00261666666667 -0.007678125 0.457585
284 1 -0.031303125 -0.00261666666667 -0.006496875 0.44265
285 1 -0.031303125 -0.00261666666667 -0.005315625 0.490273
286 1 -0.031303125 -0.00261666666667 -0.004134375 0.479734
287 1 -0.031303125 -0.00261666666667 -0.002953125 0.515168
288 1 -0.031303125 -0.00261666666667 -0.001771875 0.509067
289 1 -0.031303125 -0.00261666666667 -0.000590625 0.535907
290 1 -0.031303125 -0.00261666666667 0.000590625 0.529724
291 1 -0.031303125 -0.00261666666667 0.001771875 0.546847
292 1 -0.031303125 -0.00261666666667 0.002953125 0.54285
293 1 -0.031303125 -0.00261666666667 0.004134375 0.547296
294 1 -0.031303125 -0.00261666666667 0.005315625 0.53983
295 1 -0.031303125 -0.00261666666667 0.006496875 0.533187
296 1 -0.031303125 -0.00261666666667 0.007678125 0.52095
297 1 -0.031303125 -0.00261666666667 0.008859375 0.504616
298 1 -0.031303125 -0.00261666666667 0.010040625 0.472537
299 1 -0.031303125 -0.00261666666667 0.011221875 0.456461
300 1 -0.031303125 -0.00261666666667 0.012403125 0.402255
301 1 -0.031303125 -0.00261666666667 0.013584375 0.397573
302 1 -0.031303125 -0.00261666666667 0.014765625 0.321602
303 1 -0.031303125 -0.00261666666667 0.015946875 0.33433
304 1 -0.031303125 -0.00261666666667 0.017128125 0.247219
305 1 -0.031303125 -0.00261666666667 0.018309375 0.279112
306 1 -0.031303125 -0.00261666666667 0.019490625 0.190085
307 1 -0.031303125 -0.00125 -0.019490625 0.213925
308 1 -0.031303125 -0.00125 -0.018309375 0.150664
309 1 -0.031303125 -0.00125 -0.017128125 0.262616
310 1 -0.031303125 -0.00125 -0.015946875 0.206512
311 1 -0.031303125 -0.00125 -0.014765625 0.3188
312 1 -0.031303125 -0.00125 -0.013584375 0.27068
313 1 -0.031303125 -0.00125 -0.012403125 0.373557
314 1 -0.031303125 -0.00125 -0.011221875 0.335823
315 1 -0.031303125 -0.00125 -0.010040625 0.421743
316 1 -0.031303125 -0.00125 -0.008859375 0.392618
317 1 -0.031303125 -0.00125 -0.007678125 0.457585
318 1 -0.031303125 -0.00125 -0.006496875 0.44265
319 1 -0.031303125 -0.00125 -0.005315625 0.490273
320 1 -0.031303125 -0.00125 -0.004134375 0.479734
321 1 -0.031303125 -0.00125 -0.002953125 0.515168
322 1 -0.031303125 -0.00125 -0.001771875 0.509067
323 1 -0.031303125 -0.00125 -0.000590625 0.535907
324 1 -0.031303125 -0.00125 0.000590625 0.529724
325 1 -0.031303125 -0.00125 0.001771875 0.546847
326 1 -0.031303125 -0.00125 0.002953125 0.54285
327 1 -0.031303125 -0.00125 0.004134375 0.547296
328 1 -0.031303125 -0.00125 0.005315625 0.53983
329 1 -0.031303125 -0.00125 0.006496875 0.533187
330 1 -0.031303125 -0.00125 0.007678125 0.52095
331 1 -0.031303125 -0.00125 0.008859375 0.504616
332 1 -0.031303125 -0.00125 0.010040625 0.472537
333 1 -0.031303125 -0.00125 0.011221875 0.456461
334 1 -0.031303125 -0.00125 0.012403125 0.402255
335 1 -0.031303125 -0.00125 0.013584375 0.397573
336 1 -0.031303125 -0.00125 0.014765625 0.321602
337 1 -0.031303125 -0.00125 0.015946875 0.33433
338 1 -0.031303125 -0.00125 0.017128125 0.247219
339 1 -0.031303125 -0.00125 0.018309375 0.279112
340 1 -0.031303125 -0.00125 0.019490625 0.190085
341 1 -0.031303125 0.000116666666667 -0.019490625 0.213925
342 1 -0.031303125 0.000116666666667 -0.018309375 0.150664
343 1 -0.031303125 0.000116666666667 -0.017128125 0.262616
344 1 -0.031303125 0.000116666666667 -0.015946875 0.206512
345 1 -0.031303125 0.000116666666667 -0.014765625 0.3188
346 1 -0.031303125 0.000116666666667 -0.013584375 0.27068
347 1 -0.031303125 0.000116666666667 -0.012403125 0.373557
348 1 -0.031303125 0.000116666666667 -0.011221875 0.335823
349 1 -0.031303125 0.000116666666667 -0.010040625 0.421743
350 1 -0.031303125 0.000116666666667 -0.008859375 0.392618
351 1 -0.031303125 0.000116666666667 -0.007678125 0.457585
352 1 -0.031303125 0.000116666666667 -0.006496875 0.44265
353 1 -0.031303125 0.000116666666667 -0.005315625 0.490273
354 1 -0.031303125 0.000116666666667 -0.004134375 0.479734
355 1 -0.031303125 0.000116666666667 -0.002953125 0.515168
356 1 -0.031303125 0.000116666666667 -0.001771875 0.509067
357 1 -0.031303125 0.000116666666667 -0.000590625 0.535907
358 1 -0.031303125 0.000116666666667 0.000590625 0.529724
359 1 -0.031303125 0.000116666666667 0.001771875 0.546847
360 1 -0.031303125 0.000116666666667 0.002953125 0.54285
361 1 -0.031303125 0.000116666666667 0.004134375 0.547296
362 1 -0.031303125 0.000116666666667 0.005315625 0.53983
363 1 -0.031303125 0.000116666666667 0.006496875 0.533187
364 1 -0.031303125 0.000116666666667 0.007678125 0.52095
365 1 -0.031303125 0.000116666666667 0.008859375 0.504616
366 1 -0.031303125 0.000116666666667 0.010040625 0.472537
367 1 -0.031303125 0.000116666666667 0.011221875 0.456461
368 1 -0.031303125 0.000116666666667 0.012403125 0.402255
369 1 -0.031303125 0.000116666666667 0.013584375 0.397573
370 1 -0.031303125 0.000116666666667 0.014765625 0.321602
371 1 -0.031303125 0.000116666666667 0.015946875 0.33433
372 1 -0.031303125 0.000116666666667 0.017128125 0.247219
373 1 -0.031303125 0.000116666666667 0.018309375 0.279112
374 1 -0.031303125 0.000116666666667 0.019490625 0.190085
375 1 -0.030121875 -0.00261666666667 -0.020671875 0.11549
376 1 -0.030121875 -0.00261666666667 -0.019490625 0.176856
377 1 -0.030121875 -0.00261666666667 -0.018309375 0.157846
378 1 -0.030121875 -0.00261666666667 -0.017128125 0.226568
379 1 -0.030121875 -0.00261666666667 -0.015946875 0.217292
380 1 -0.030121875 -0.00261666666667 -0.014765625 0.283222
381 1 -0.030121875 -0.00261666666667 -0.013584375 0.285865
382 1 -0.030121875 -0.00261666666667 -0.012403125 0.339669
383 1 -0.030121875 -0.00261666666667 -0.011221875 0.347918
384 1 -0.030121875 -0.00261666666667 -0.010040625 0.38428
385 1 -0.030121875 -0.00261666666667 -0.008859375 0.397564
386 1 -0.030121875 -0.00261666666667 -0.007678125 0.418248
387 1 -0.030121875 -0.00261666666667 -0.006496875 0.439659
388 1 -0.030121875 -0.00261666666667 -0.005315625 0.446997
389 1 -0.030121875 -0.00261666666667 -0.004134375 0.478864
390 1 -0.030121875 -0.00261666666667 -0.002953125 0.46748
391 1 -0.030121875 -0.00261666666667 -0.001771875 0.51059
392 1 -0.030121875 -0.00261666666667 -0.000590625 0.482795
393 1 -0.030121875 -0.00261666666667 0.000590625 0.536422
394 1 -0.030121875 -0.00261666666667 0.001771875 0.494048
395 1 -0.030121875 -0.00261666666667 0.002953125 0.55274
396 1 -0.030121875 -0.00261666666667 0.004134375 0.490913
397 1 -0.030121875 -0.00261666666667 0.005315625 0.558826
398 1 -0.030121875 -0.00261666666667 0.006496875 0.477359
399 1 -0.030121875 -0.00261666666667 0.007678125 0.545268
400 1 -0.030121875 -0.00261666666667 0.008859375 0.448261
401 1 -0.030121875 -0.00261666666667 0.010040625 0.508785
402 1 -0.030121875 -0.00261666666667 0.011221875 0.402699
403 1 -0.030121875 -0.00261666666667 0.012403125 0.450202
404 1 -0.030121875 -0.00261666666667 0.013584375 0.343646
405 1 -0.030121875 -0.00261666666667 0.014765625 0.370883
406 1 -0.030121875 -0.00261666666667 0.015946875 0.281227
407 1 -0.030121875 -0.00261666666667 0.017128125 0.28686
408 1 -0.030121875 -0.00261666666667 0.018309375 0.227818
409 1 -0.030121875 -0.00261666666667 0.019490625 0.216741
410 1 -0.030121875 -0.00261666666667 0.020671875 0.188235
411 1 -0.030121875 -0.00125 -0.020671875 0.11549
412 1 -0.030121875 -0.00125 -0.019490625 0.176856
413 1 -0.030121875 -0.00125 -0.018309375 0.157846
414 1 -0.030121875 -0.00125 -0.017128125 0.226568
415 1 -0.030121875 -0.00125 -0.015946875 0.217292
416 1 -0.030121875 -0.00125 -0.014765625 0.283222
417 1 -0.030121875 -0.00125 -0.013584375 0.285865
418 1 -0.030121875 -0.00125 -0.012403125 0.339669
419 1 -0.030121875 -0.00125 -0.011221875 0.347918
420 1 -0.030121875 -0.00125 -0.010040625 0.38428
421 1 -0.030121875 -0.00125 -0.008859375 0.397564
422 1 -0.030121875 -0.00125 -0.007678125 0.418248
423 1 -0.030121875 -0.00125 -0.006496875 0.439659
424 1 -0.030121875 -0.00125 -0.005315625 0.446997
425 1 -0.030121875 -0.00125 -0.004134375 0.478864
426 1 -0.030121875 -0.00125 -0.002953125 0.46748
427 1 -0.030121875 -0.00125 -0.001771875 0.51059
428 1 -0.030121875 -0.00125 -0.000590625 0.482795
429 1 -0.030121875 -0.00125 0.000590625 0.536422
430 1 -0.030121875 -0.00125 0.001771875 0.494048
431 1 -0.030121875 -0.00125 0.002953125 0.55274
432 1 -0.030121875 -0.00125 0.004134375 0.490913
433 1 -0.030121875 -0.00125 0.005315625 0.558826
434 1 -0.030121875 -0.00125 0.006496875 0.477359
435 1 -0.030121875 -0.00125 0.007678125 0.545268
436 1 -0.030121875 -0.00125 0.008859375 0.448261
437 1 -0.030121875 -0.00125 0.010040625 0.508785
438 1 -0.030121875 -0.00125 0.011221875 0.402699
439 1 -0.030121875 -0.00125 0.012403125 0.450202
440 1 -0.030121875 -0.00125 0.013584375 0.343646
441 1 -0.030121875 -0.00125 0.014765625 0.370883
442 1 -0.030121875 -0.00125 0.015946875 0.281227
443 1 -0.030121875 -0.00125 0.017128125 0.28686
444 1 -0.030121875 -0.00125 0.018309375 0.227818
445 1 -0.030121875 -0.00125 0.019490625 0.216741
446 1 -0.030121875 -0.00125 0.020671875 0.188235
447 1 -0.030121875 0.000116666666667 -0.020671875 0.11549
448 1 -0.030121875 0.000116666666667 -0.019490625 0.176856
449 1 -0.030121875 0.000116666666667 -0.018309375 0.157846
450 1 -0.030121875 0.000116666666667 -0.017128125 0.226568
451 1 -0.030121875 0.000116666666667 -0.015946875 0.217292
452 1 -0.030121875 0.000116666666667 -0.014765625 0.283222
453 1 -0.030121875 0.000116666666667 -0.013584375 0.285865
454 1 -0.030121875 0.000116666666667 -0.012403125 0.339669
455 1 -0.030121875 0.000116666666667 -0.011221875 0.347918
456 1 -0.030121875 0.000116666666667 -0.010040625 0.38428
457 1 -0.030121875 0.000116666666667 -0.008859375 0.397564
458 1 -0.030121875 0.000116666666667 -0.007678125 0.418248
459 1 -0.030121875 0.000116666666667 -0.006496875 0.439659
460 1 -0.030121875 0.000116666666667 -0.005315625 0.446997
461 1 -0.030121875 0.000116666666667 -0.004134375 0.478864
462 1 -0.030121875 0.000116666666667 -0.002953125 0.46748
463 1 -0.030121875 0.000116666666667 -0.001771875 0.51059
464 1 -0.030121875 0.000116666666667 -0.000590625 0.482795
465 1 -0.030121875 0.000116666666667 0.000590625 0.536422
466 1 -0.030121875 0.000116666666667 0.001771875 0.494048
467 1 -0.030121875 0.000116666666667 0.002953125 0.55274
468 1 -0.030121875 0.000116666666667 0.004134375 0.490913
469 1 -0.030121875 0.000116666666667 0.005315625 0.558826
470 1 -0.030121875 0.000116666666667 0.006496875 0.477359
471 1 -0.030121875 0.000116666666667 0.007678125 0.545268
472 1 -0.030121875 0.000116666666667 0.008859375 0.448261
473 1 -0.030121875 0.000116666666667 0.010040625 0.508785
474 1 -0.030121875 0.000116666666667 0.011221875 0.402699
475 1 -0.030121875 0.000116666666667 0.012403125 0.450202
476 1 -0.030121875 0.000116666666667 0.013584375 0.343646
477 1 -0.030121875 0.000116666666667 0.014765625 0.370883
478 1 -0.030121875 0.000116666666667 0.015946875 0.281227
479 1 -0.030121875 0.000116666666667 0.017128125 0.28686
480 1 -0.030121875 0.000116666666667 0.018309375 0.227818
481 1 -0.030121875 0.000116666666667 0.019490625 0.216741
482 1 -0.030121875 0.000116666666667 0.020671875 0.188235
483 1 -0.028940625 -0.00261666666667 -0.021853125 0.252909
484 1 -0.028940625 -0.00261666666667 -0.020671875 0.201615
485 1 -0.028940625 -0.00261666666667 -0.019490625 0.312514
486 1 -0.028940625 -0.00261666666667 -0.018309375 0.276357
487 1 -0.028940625 -0.00261666666667 -0.017128125 0.380758
488 1 -0.028940625 -0.00261666666667 -0.015946875 0.362051
489 1 -0.028940625 -0.00261666666667 -0.014765625 0.446926
490 1 -0.028940625 -0.00261666666667 -0.013584375 0.437235
491 1 -0.028940625 -0.00261666666667 -0.012403125 0.498783
492 1 -0.028940625 -0.00261666666667 -0.011221875 0.491977
493 1 -0.028940625 -0.00261666666667 -0.010040625 0.536322
494 1 -0.028940625 -0.00261666666667 -0.008859375 0.52741
495 1 -0.028940625 -0.00261666666667 -0.007678125 0.561944
496 1 -0.028940625 -0.00261666666667 -0.006496875 0.555848
497 1 -0.028940625 -0.00261666666667 -0.005315625 0.584798
498 1 -0.028940625 -0.00261666666667 -0.004134375 0.577289
499 1 -0.028940625 -0.00261666666667 -0.002953125 0.601083
500 1 -0.028940625 -0.00261666666667 -0.001771875 0.595838
501 1 -0.028940625 -0.00261666666667 -0.000590625 0.615893
502 1 -0.028940625 -0.00261666666667 0.000590625 0.609773
503 1 -0.028940625 -0.00261666666667 0.001771875 0.623201
504 1 -0.028940625 -0.00261666666667 0.002953125 0.619437
505 1 -0.028940625 -0.00261666666667 0.004134375 0.622526
506 1 -0.028940625 -0.00261666666667 0.005315625 0.616899
507 1 -0.028940625 -0.00261666666667 0.006496875 0.609486
508 1 -0.028940625 -0.00261666666667 0.007678125 0.604058
509 1 -0.028940625 -0.00261666666667 0.008859375 0.585674
510 1 -0.028940625 -0.00261666666667 0.010040625 0.578556
511 1 -0.028940625 -0.00261666666667 0.011221875 0.548015
512 1 -0.028940625 -0.00261666666667 0.012403125 0.541323
513 1 -0.028940625 -0.00261666666667 0.013584375 0.499984
514 1 -0.028940625 -0.00261666666667 0.014765625 0.473263
515 1 -0.028940625 -0.00261666666667 0.015946875 0.435269
516 1 -0.028940625 -0.00261666666667 0.017128125 0.383952
517 1 -0.028940625 -0.00261666666667 0.018309375 0.368119
518 1 -0.028940625 -0.00261666666667 0.019490625 0.300719
519 1 -0.028940625 -0.00261666666667 0.020671875 0.313797
520 1 -0.028940625 -0.00261666666667 0.021853125 0.236571
521 1 -0.028940625 -0.00125 -0.021853125 0.252909
522 1 -0.028940625 -0.00125 -0.020671875 0.201615
523 1 -0.028940625 -0.00125 -0.019490625 0.312514
524 1 -0.028940625 -0.00125 -0.018309375 0.276357
525 1 -0.028940625 -0.00125 -0.017128125 0.380758
526 1 -0.028940625 -0.00125 -0.015946875 0.362051
527 1 -0.028940625 -0.00125 -0.014765625 0.446926
528 1 -0.028940625 -0.00125 -0.013584375 0.437235
529 1 -0.028940625 -0.00125 -0.012403125 0.498783
530 1 -0.028940625 -0.00125 -0.011221875 0.491977
531 1 -0.028940625 -0.00125 -0.010040625 0.536322
532 1 -0.028940625 -0.00125 -0.008859375 0.52741
533 1 -0.028940625 -0.00125 -0.007678125 0.561944
534 1 -0.028940625 -0.00125 -0.006496875 0.555848
535 1 -0.028940625 -0.00125 -0.005315625 0.584798
536 1 -0.028940625 -0.00125 -0.004134375 0.577289
537 1 -0.028940625 -0.00125 -0.002953125 0.601083
538 1 -0.028940625 -0.00125 -0.001771875 0.595838