ITEM: TIMESTEP
0
ITEM: NUMBER OF ATOMS
9240
ITEM: BOX BOUNDS ss ss ss
-3.7007399999999996e-02 3.7007399999999996e-02
-2.0002499999999999e-03 2.5000000000000004e-07
-3.7007399999999996e-02 3.7007399999999996e-02
ITEM: ATOMS id type x y z c_1
0 1 -0.037209375 -0.00261666666667 -0.000590625 0.354315
1 1 -0.037209375 -0.00125 -0.000590625 0.354315
2 1 -0.037209375 0.000116666666667 -0.000590625 0.354315
3 1 -0.036028125 -0.00261666666667 -0.007678125 0.434646
4 1 -0.036028125 -0.00261666666667 -0.006496875 0.312325
5 1 -0.036028125 -0.00261666666667 -0.005315625 0.442044
6 1 -0.036028125 -0.00261666666667 -0.004134375 0.317378
7 1 -0.036028125 -0.00261666666667 -0.002953125 0.447686
8 1 -0.036028125 -0.00261666666667 -0.001771875 0.322867
9 1 -0.036028125 -0.00261666666667 -0.000590625 0.452862
10 1 -0.036028125 -0.00261666666667 0.000590625 0.327597
11 1 -0.036028125 -0.00261666666667 0.001771875 0.454916
12 1 -0.036028125 -0.00261666666667 0.002953125 0.329805
13 1 -0.036028125 -0.00261666666667 0.004134375 0.452875
14 1 -0.036028125 -0.00261666666667 0.005315625 0.328454
15 1 -0.036028125 -0.00261666666667 0.006496875 0.447521
16 1 -0.036028125 -0.00261666666667 0.007678125 0.324166
17 1 -0.036028125 -0.00125 -0.007678125 0.434646
18 1 -0.036028125 -0.00125 -0.006496875 0.312325
19 1 -0.036028125 -0.00125 -0.005315625 0.442044
20 1 -0.036028125 -0.00125 -0.004134375 0.317378
21 1 -0.036028125 -0.00125 -0.002953125 0.447686
22 1 -0.036028125 -0.00125 -0.001771875 0.322867
23 1 -0.036028125 -0.00125 -0.000590625 0.452862
24 1 -0.036028125 -0.00125 0.000590625 0.327597
25 1 -0.036028125 -0.00125 0.001771875 0.454916
26 1 -0.036028125 -0.00125 0.002953125 0.329805
27 1 -0.036028125 -0.00125 0.004134375 0.452875
28 1 -0.036028125 -0.00125 0.005315625 0.328454
29 1 -0.036028125 -0.00125 0.006496875 0.447521
30 1 -0.036028125 -0.00125 0.007678125 0.324166
31 1 -0.036028125 0.000116666666667 -0.007678125 0.434646
32 1 -0.036028125 0.000116666666667 -0.006496875 0.312325
33 1 -0.036028125 0.000116666666667 -0.005315625 0.442044
34 1 -0.036028125 0.000116666666667 -0.004134375 0.317378
35 1 -0.036028125 0.000116666666667 -0.002953125 0.447686
36 1 -0.036028125 0.000116666666667 -0.001771875 0.322867
37 1 -0.036028125 0.000116666666667 -0.000590625 0.452862
38 1 -0.036028125 0.000116666666667 0.000590625 0.327597
39 1 -0.036028125 0.000116666666667 0.001771875 0.454916
40 1 -0.036028125 0.000116666666667 0.002953125 0.329805
41 1 -0.036028125 0.000116666666667 0.004134375 0.452875
42 1 -0.036028125 0.000116666666667 0.005315625 0.328454
43 1 -0.036028125 0.000116666666667 0.006496875 0.447521
44 1 -0.036028125 0.000116666666667 0.007678125 0.324166
45 1 -0.034846875 -0.00261666666667 -0.011221875 0.273986
46 1 -0.034846875 -0.00261666666667 -0.010040625 0.261685
47 1 -0.034846875 -0.00261666666667 -0.008859375 0.288194
48 1 -0.034846875 -0.00261666666667 -0.007678125 0.269311
49 1 -0.034846875 -0.00261666666667 -0.006496875 0.302528
50 1 -0.034846875 -0.00261666666667 -0.005315625 0.276974
51 1 -0.034846875 -0.00261666666667 -0.004134375 0.317284
52 1 -0.034846875 -0.00261666666667 -0.002953125 0.28449
53 1 -0.034846875 -0.00261666666667 -0.001771875 0.330886
54 1 -0.034846875 -0.00261666666667 -0.000590625 0.291439
55 1 -0.034846875 -0.00261666666667 0.000590625 0.341884
56 1 -0.034846875 -0.00261666666667 0.001771875 0.297271
57 1 -0.034846875 -0.00261666666667 0.002953125 0.348182
58 1 -0.034846875 -0.00261666666667 0.004134375 0.296083
59 1 -0.034846875 -0.00261666666667 0.005315625 0.348584
60 1 -0.034846875 -0.00261666666667 0.006496875 0.2915
61 1 -0.034846875 -0.00261666666667 0.007678125 0.340154
62 1 -0.034846875 -0.00261666666667 0.008859375 0.281058
63 1 -0.034846875 -0.00261666666667 0.010040625 0.325358
64 1 -0.034846875 -0.00261666666667 0.011221875 0.270029
65 1 -0.034846875 -0.00125 -0.011221875 0.273986
66 1 -0.034846875 -0.00125 -0.010040625 0.261685
67 1 -0.034846875 -0.00125 -0.008859375 0.288194
68 1 -0.034846875 -0.00125 -0.007678125 0.269311
69 1 -0.034846875 -0.00125 -0.006496875 0.302528
70 1 -0.034846875 -0.00125 -0.005315625 0.276974
71 1 -0.034846875 -0.00125 -0.004134375 0.317284
72 1 -0.034846875 -0.00125 -0.002953125 0.28449
73 1 -0.034846875 -0.00125 -0.001771875 0.330886
74 1 -0.034846875 -0.00125 -0.000590625 0.291439
75 1 -0.034846875 -0.00125 0.000590625 0.341884
76 1 -0.034846875 -0.00125 0.001771875 0.297271
77 1 -0.034846875 -0.00125 0.002953125 0.348182
78 1 -0.034846875 -0.00125 0.004134375 0.296083
79 1 -0.034846875 -0.00125 0.005315625 0.348584
80 1 -0.034846875 -0.00125 0.006496875 0.2915
81 1 -0.034846875 -0.00125 0.007678125 0.340154
82 1 -0.034846875 -0.00125 0.008859375 0.281058
83 1 -0.034846875 -0.00125 0.010040625 0.325358
84 1 -0.034846875 -0.00125 0.011221875 0.270029
85 1 -0.034846875 0.000116666666667 -0.011221875 0.273986
86 1 -0.034846875 0.000116666666667 -0.010040625 0.261685
87 1 -0.034846875 0.000116666666667 -0.008859375 0.288194
88 1 -0.034846875 0.000116666666667 -0.007678125 0.269311
89 1 -0.034846875 0.000116666666667 -0.006496875 0.302528
90 1 -0.034846875 0.000116666666667 -0.005315625 0.276974
91 1 -0.034846875 0.000116666666667 -0.004134375 0.317284
92 1 -0.034846875 0.000116666666667 -0.002953125 0.28449
93 1 -0.034846875 0.000116666666667 -0.001771875 0.330886
94 1 -0.034846875 0.000116666666667 -0.000590625 0.291439
95 1 -0.034846875 0.000116666666667 0.000590625 0.341884
96 1 -0.034846875 0.000116666666667 0.001771875 0.297271
97 1 -0.034846875 0.000116666666667 0.002953125 0.348182
98 1 -0.034846875 0.000116666666667 0.004134375 0.296083
99 1 -0.034846875 0.000116666666667 0.005315625 0.348584
100 1 -0.034846875 0.000116666666667 0.006496875 0.2915
101 1 -0.034846875 0.000116666666667 0.007678125 0.340154
102 1 -0.034846875 0.000116666666667 0.008859375 0.281058
103 1 -0.034846875 0.000116666666667 0.010040625 0.325358
104 1 -0.034846875 0.000116666666667 0.011221875 0.270029
105 1 -0.033665625 -0.00261666666667 -0.013584375 0.290393
106 1 -0.033665625 -0.00261666666667 -0.012403125 0.413535
107 1 -0.033665625 -0.00261666666667 -0.011221875 0.301706
108 1 -0.033665625 -0.00261666666667 -0.010040625 0.428738
109 1 -0.033665625 -0.00261666666667 -0.008859375 0.3117
110 1 -0.033665625 -0.00261666666667 -0.007678125 0.439902
111 1 -0.033665625 -0.00261666666667 -0.006496875 0.320993
112 1 -0.033665625 -0.00261666666667 -0.005315625 0.449907
113 1 -0.033665625 -0.00261666666667 -0.004134375 0.328696
114 1 -0.033665625 -0.00261666666667 -0.002953125 0.456421
115 1 -0.033665625 -0.00261666666667 -0.001771875 0.336888
116 1 -0.033665625 -0.00261666666667 -0.000590625 0.46331
117 1 -0.033665625 -0.00261666666667 0.000590625 0.343474
118 1 -0.033665625 -0.00261666666667 0.001771875 0.466206
119 1 -0.033665625 -0.00261666666667 0.002953125 0.346801
120 1 -0.033665625 -0.00261666666667 0.004134375 0.463412
121 1 -0.033665625 -0.00261666666667 0.005315625 0.344535
122 1 -0.033665625 -0.00261666666667 0.006496875 0.455754
123 1 -0.033665625 -0.00261666666667 0.007678125 0.338089
124 1 -0.033665625 -0.00261666666667 0.008859375 0.444004
125 1 -0.033665625 -0.00261666666667 0.010040625 0.328318
126 1 -0.033665625 -0.00261666666667 0.011221875 0.426785
127 1 -0.033665625 -0.00261666666667 0.012403125 0.317871
128 1 -0.033665625 -0.00261666666667 0.013584375 0.409202
129 1 -0.033665625 -0.00125 -0.013584375 0.290393
130 1 -0.033665625 -0.00125 -0.012403125 0.413535
131 1 -0.033665625 -0.00125 -0.011221875 0.301706
132 1 -0.033665625 -0.00125 -0.010040625 0.428738
133 1 -0.033665625 -0.00125 -0.008859375 0.3117
134 1 -0.033665625 -0.00125 -0.007678125 0.439902
135 1 -0.033665625 -0.00125 -0.006496875 0.320993
136 1 -0.033665625 -0.00125 -0.005315625 0.449907
137 1 -0.033665625 -0.00125 -0.004134375 0.328696
138 1 -0.033665625 -0.00125 -0.002953125 0.456421
139 1 -0.033665625 -0.00125 -0.001771875 0.336888
140 1 -0.033665625 -0.00125 -0.000590625 0.46331
141 1 -0.033665625 -0.00125 0.000590625 0.343474
142 1 -0.033665625 -0.00125 0.001771875 0.466206
143 1 -0.033665625 -0.00125 0.002953125 0.346801
144 1 -0.033665625 -0.00125 0.004134375 0.463412
145 1 -0.033665625 -0.00125 0.005315625 0.344535
146 1 -0.033665625 -0.00125 0.006496875 0.455754
147 1 -0.033665625 -0.00125 0.007678125 0.338089
148 1 -0.033665625 -0.00125 0.008859375 0.444004
149 1 -0.033665625 -0.00125 0.010040625 0.328318
150 1 -0.033665625 -0.00125 0.011221875 0.426785
151 1 -0.033665625 -0.00125 0.012403125 0.317871
152 1 -0.033665625 -0.00125 0.013584375 0.409202
153 1 -0.033665625 0.000116666666667 -0.013584375 0.290393
154 1 -0.033665625 0.000116666666667 -0.012403125 0.413535
155 1 -0.033665625 0.000116666666667 -0.011221875 0.301706
156 1 -0.033665625 0.000116666666667 -0.010040625 0.428738
157 1 -0.033665625 0.000116666666667 -0.008859375 0.3117
158 1 -0.033665625 0.000116666666667 -0.007678125 0.439902
159 1 -0.033665625 0.000116666666667 -0.006496875 0.320993
160 1 -0.033665625 0.000116666666667 -0.005315625 0.449907
161 1 -0.033665625 0.000116666666667 -0.004134375 0.328696
162 1 -0.033665625 0.000116666666667 -0.002953125 0.456421
163 1 -0.033665625 0.000116666666667 -0.001771875 0.336888
164 1 -0.033665625 0.000116666666667 -0.000590625 0.46331
165 1 -0.033665625 0.000116666666667 0.000590625 0.343474
166 1 -0.033665625 0.000116666666667 0.001771875 0.466206
167 1 -0.033665625 0.000116666666667 0.002953125 0.346801
168 1 -0.033665625 0.000116666666667 0.004134375 0.463412
169 1 -0.033665625 0.000116666666667 0.005315625 0.344535
170 1 -0.033665625 0.000116666666667 0.006496875 0.455754
171 1 -0.033665625 0.000116666666667 0.007678125 0.338089
172 1 -0.033665625 0.000116666666667 0.008859375 0.444004
173 1 -0.033665625 0.000116666666667 0.010040625 0.328318
174 1 -0.033665625 0.000116666666667 0.011221875 0.426785
175 1 -0.033665625 0.000116666666667 0.012403125 0.317871
176 1 -0.033665625 0.000116666666667 0.013584375 0.409202
177 1 -0.032484375 -0.00261666666667 -0.018309375 0.217749
178 1 -0.032484375 -0.00261666666667 -0.017128125 0.218897
179 1 -0.032484375 -0.00261666666667 -0.015946875 0.235402
180 1 -0.032484375 -0.00261666666667 -0.014765625 0.23072
181 1 -0.032484375 -0.00261666666667 -0.013584375 0.255434
182 1 -0.032484375 -0.00261666666667 -0.012403125 0.244489
183 1 -0.032484375 -0.00261666666667 -0.011221875 0.278057
184 1 -0.032484375 -0.00261666666667 -0.010040625 0.258922
185 1 -0.032484375 -0.00261666666667 -0.008859375 0.300099
186 1 -0.032484375 -0.00261666666667 -0.007678125 0.272428
187 1 -0.032484375 -0.00261666666667 -0.006496875 0.320204
188 1 -0.032484375 -0.00261666666667 -0.005315625 0.283847
189 1 -0.032484375 -0.00261666666667 -0.004134375 0.339422
190 1 -0.032484375 -0.00261666666667 -0.002953125 0.294034
191 1 -0.032484375 -0.00261666666667 -0.001771875 0.356072
192 1 -0.032484375 -0.00261666666667 -0.000590625 0.303389
193 1 -0.032484375 -0.00261666666667 0.000590625 0.369364
194 1 -0.032484375 -0.00261666666667 0.001771875 0.310626
195 1 -0.032484375 -0.00261666666667 0.002953125 0.376325
196 1 -0.032484375 -0.00261666666667 0.004134375 0.307126
197 1 -0.032484375 -0.00261666666667 0.005315625 0.374995
198 1 -0.032484375 -0.00261666666667 0.006496875 0.298764
199 1 -0.032484375 -0.00261666666667 0.007678125 0.362582
200 1 -0.032484375 -0.00261666666667 0.008859375 0.283471
201 1 -0.032484375 -0.00261666666667 0.010040625 0.341769
202 1 -0.032484375 -0.00261666666667 0.011221875 0.265503
203 1 -0.032484375 -0.00261666666667 0.012403125 0.316849
204 1 -0.032484375 -0.00261666666667 0.013584375 0.247356
205 1 -0.032484375 -0.00261666666667 0.014765625 0.291374
206 1 -0.032484375 -0.00261666666667 0.015946875 0.230128
207 1 -0.032484375 -0.00261666666667 0.017128125 0.267564
208 1 -0.032484375 -0.00261666666667 0.018309375 0.215341
209 1 -0.032484375 -0.00125 -0.018309375 0.217749
210 1 -0.032484375 -0.00125 -0.017128125 0.218897
211 1 -0.032484375 -0.00125 -0.015946875 0.235402
212 1 -0.032484375 -0.00125 -0.014765625 0.23072
213 1 -0.032484375 -0.00125 -0.013584375 0.255434
214 1 -0.032484375 -0.00125 -0.012403125 0.244489
215 1 -0.032484375 -0.00125 -0.011221875 0.278057
216 1 -0.032484375 -0.00125 -0.010040625 0.258922
217 1 -0.032484375 -0.00125 -0.008859375 0.300099
218 1 -0.032484375 -0.00125 -0.007678125 0.272428
219 1 -0.032484375 -0.00125 -0.006496875 0.320204
220 1 -0.032484375 -0.00125 -0.005315625 0.283847
221 1 -0.032484375 -0.00125 -0.004134375 0.339422
222 1 -0.032484375 -0.00125 -0.002953125 0.294034
223 1 -0.032484375 -0.00125 -0.001771875 0.356072
224 1 -0.032484375 -0.00125 -0.000590625 0.303389
225 1 -0.032484375 -0.00125 0.000590625 0.369364
226 1 -0.032484375 -0.00125 0.001771875 0.310626
227 1 -0.032484375 -0.00125 0.002953125 0.376325
228 1 -0.032484375 -0.00125 0.004134375 0.307126
229 1 -0.032484375 -0.00125 0.005315625 0.374995
230 1 -0.032484375 -0.00125 0.006496875 0.298764
231 1 -0.032484375 -0.00125 0.007678125 0.362582
232 1 -0.032484375 -0.00125 0.008859375 0.283471
233 1 -0.032484375 -0.00125 0.010040625 0.341769
234 1 -0.032484375 -0.00125 0.011221875 0.265503
235 1 -0.032484375 -0.00125 0.012403125 0.316849
236 1 -0.032484375 -0.00125 0.013584375 0.247356
237 1 -0.032484375 -0.00125 0.014765625 0.291374
238 1 -0.032484375 -0.00125 0.015946875 0.230128
239 1 -0.032484375 -0.00125 0.017128125 0.267564
240 1 -0.032484375 -0.00125 0.018309375 0.215341
241 1 -0.032484375 0.000116666666667 -0.018309375 0.217749
242 1 -0.032484375 0.000116666666667 -0.017128125 0.218897
243 1 -0.032484375 0.000116666666667 -0.015946875 0.235402
244 1 -0.032484375 0.000116666666667 -0.014765625 0.23072
245 1 -0.032484375 0.000116666666667 -0.013584375 0.255434
246 1 -0.032484375 0.000116666666667 -0.012403125 0.244489
247 1 -0.032484375 0.000116666666667 -0.011221875 0.278057
248 1 -0.032484375 0.000116666666667 -0.010040625 0.258922
249 1 -0.032484375 0.000116666666667 -0.008859375 0.300099
250 1 -0.032484375 0.000116666666667 -0.007678125 0.272428
251 1 -0.032484375 0.000116666666667 -0.006496875 0.320204
252 1 -0.032484375 0.000116666666667 -0.005315625 0.283847
253 1 -0.032484375 0.000116666666667 -0.004134375 0.339422
254 1 -0.032484375 0.000116666666667 -0.002953125 0.294034
255 1 -0.032484375 0.000116666666667 -0.001771875 0.356072
256 1 -0.032484375 0.000116666666667 -0.000590625 0.303389
257 1 -0.032484375 0.000116666666667 0.000590625 0.369364
258 1 -0.032484375 0.000116666666667 0.001771875 0.310626
259 1 -0.032484375 0.000116666666667 0.002953125 0.376325
260 1 -0.032484375 0.000116666666667 0.004134375 0.307126
261 1 -0.032484375 0.000116666666667 0.005315625 0.374995
262 1 -0.032484375 0.000116666666667 0.006496875 0.298764
263 1 -0.032484375 0.000116666666667 0.007678125 0.362582
264 1 -0.032484375 0.000116666666667 0.008859375 0.283471
265 1 -0.032484375 0.000116666666667 0.010040625 0.341769
266 1 -0.032484375 0.000116666666667 0.011221875 0.265503
267 1 -0.032484375 0.000116666666667 0.012403125 0.316849
268 1 -0.032484375 0.000116666666667 0.013584375 0.247356
269 1 -0.032484375 0.000116666666667 0.014765625 0.291374
270 1 -0.032484375 0.000116666666667 0.015946875 0.230128
271 1 -0.032484375 0.000116666666667 0.017128125 0.267564
272 1 -0.032484375 0.000116666666667 0.018309375 0.215341
273 1 -0.031303125 -0.00261666666667 -0.019490625 0.382822
274 1 -0.031303125 -0.00261666666667 -0.018309375 0.276076
275 1 -0.031303125 -0.00261666666667 -0.017128125 0.400651
276 1 -0.031303125 -0.00261666666667 -0.015946875 0.288859
277 1 -0.031303125 -0.00261666666667 -0.014765625 0.420934
278 1 -0.031303125 -0.00261666666667 -0.013584375 0.302298
279 1 -0.031303125 -0.00261666666667 -0.012403125 0.43731
280 1 -0.031303125 -0.00261666666667 -0.011221875 0.317385
281 1 -0.031303125 -0.00261666666667 -0.010040625 0.454103
282 1 -0.031303125 -0.00261666666667 -0.008859375 0.331035
283 1 -0.031303125 -0.00261666666667 -0.007678125 0.466311
284 1 -0.031303125 -0.00261666666667 -0.006496875 0.344392
285 1 -0.031303125 -0.00261666666667 -0.005315625 0.477826
286 1 -0.031303125 -0.00261666666667 -0.004134375 0.354675
287 1 -0.031303125 -0.00261666666667 -0.002953125 0.484955
288 1 -0.031303125 -0.00261666666667 -0.001771875 0.365381
289 1 -0.031303125 -0.00261666666667 -0.000590625 0.491824
290 1 -0.031303125 -0.00261666666667 0.000590625 0.373935
291 1 -0.031303125 -0.00261666666667 0.001771875 0.493511
292 1 -0.031303125 -0.00261666666667 0.002953125 0.377923
293 1 -0.031303125 -0.00261666666667 0.004134375 0.488162
294 1 -0.031303125 -0.00261666666667 0.005315625 0.37352
295 1 -0.031303125 -0.00261666666667 0.006496875 0.476259
296 1 -0.031303125 -0.00261666666667 0.007678125 0.363488
297 1 -0.031303125 -0.00261666666667 0.008859375 0.458855
298 1 -0.031303125 -0.00261666666667 0.010040625 0.349562
299 1 -0.031303125 -0.00261666666667 0.011221875 0.437532
300 1 -0.031303125 -0.00261666666667 0.012403125 0.33422
301 1 -0.031303125 -0.00261666666667 0.013584375 0.416114
302 1 -0.031303125 -0.00261666666667 0.014765625 0.318559
303 1 -0.031303125 -0.00261666666667 0.015946875 0.392672
304 1 -0.031303125 -0.00261666666667 0.017128125 0.304591
305 1 -0.031303125 -0.00261666666667 0.018309375 0.370236
306 1 -0.031303125 -0.00261666666667 0.019490625 0.291696
307 1 -0.031303125 -0.00125 -0.019490625 0.382822
308 1 -0.031303125 -0.00125 -0.018309375 0.276076
309 1 -0.031303125 -0.00125 -0.017128125 0.400651
310 1 -0.031303125 -0.00125 -0.015946875 0.288859
311 1 -0.031303125 -0.00125 -0.014765625 0.420934
312 1 -0.031303125 -0.00125 -0.013584375 0.302298
313 1 -0.031303125 -0.00125 -0.012403125 0.43731
314 1 -0.031303125 -0.00125 -0.011221875 0.317385
315 1 -0.031303125 -0.00125 -0.010040625 0.454103
316 1 -0.031303125 -0.00125 -0.008859375 0.331035
317 1 -0.031303125 -0.00125 -0.007678125 0.466311
318 1 -0.031303125 -0.00125 -0.006496875 0.344392
319 1 -0.031303125 -0.00125 -0.005315625 0.477826
320 1 -0.031303125 -0.00125 -0.004134375 0.354675
321 1 -0.031303125 -0.00125 -0.002953125 0.484955
322 1 -0.031303125 -0.00125 -0.001771875 0.365381
323 1 -0.031303125 -0.00125 -0.000590625 0.491824
324 1 -0.031303125 -0.00125 0.000590625 0.373935
325 1 -0.031303125 -0.00125 0.001771875 0.493511
326 1 -0.031303125 -0.00125 0.002953125 0.377923
327 1 -0.031303125 -0.00125 0.004134375 0.488162
328 1 -0.031303125 -0.00125 0.005315625 0.37352
329 1 -0.031303125 -0.00125 0.006496875 0.476259
330 1 -0.031303125 -0.00125 0.007678125 0.363488
331 1 -0.031303125 -0.00125 0.008859375 0.458855
332 1 -0.031303125 -0.00125 0.010040625 0.349562
333 1 -0.031303125 -0.00125 0.011221875 0.437532
334 1 -0.031303125 -0.00125 0.012403125 0.33422
335 1 -0.031303125 -0.00125 0.013584375 0.416114
336 1 -0.031303125 -0.00125 0.014765625 0.318559
337 1 -0.031303125 -0.00125 0.015946875 0.392672
338 1 -0.031303125 -0.00125 0.017128125 0.304591
339 1 -0.031303125 -0.00125 0.018309375 0.370236
340 1 -0.031303125 -0.00125 0.019490625 0.291696
341 1 -0.031303125 0.000116666666667 -0.019490625 0.382822
342 1 -0.031303125 0.000116666666667 -0.018309375 0.276076
343 1 -0.031303125 0.000116666666667 -0.017128125 0.400651
344 1 -0.031303125 0.000116666666667 -0.015946875 0.288859
345 1 -0.031303125 0.000116666666667 -0.014765625 0.420934
346 1 -0.031303125 0.000116666666667 -0.013584375 0.302298
347 1 -0.031303125 0.000116666666667 -0.012403125 0.43731
348 1 -0.031303125 0.000116666666667 -0.011221875 0.317385
349 1 -0.031303125 0.000116666666667 -0.010040625 0.454103
350 1 -0.031303125 0.000116666666667 -0.008859375 0.331035
351 1 -0.031303125 0.000116666666667 -0.007678125 0.466311
352 1 -0.031303125 0.000116666666667 -0.006496875 0.344392
353 1 -0.031303125 0.000116666666667 -0.005315625 0.477826
354 1 -0.031303125 0.000116666666667 -0.004134375 0.354675
355 1 -0.031303125 0.000116666666667 -0.002953125 0.484955
356 1 -0.031303125 0.000116666666667 -0.001771875 0.365381
357 1 -0.031303125 0.000116666666667 -0.000590625 0.491824
358 1 -0.031303125 0.000116666666667 0.000590625 0.373935
359 1 -0.031303125 0.000116666666667 0.001771875 0.493511
360 1 -0.031303125 0.000116666666667 0.002953125 0.377923
361 1 -0.031303125 0.000116666666667 0.004134375 0.488162
362 1 -0.031303125 0.000116666666667 0.005315625 0.37352
363 1 -0.031303125 0.000116666666667 0.006496875 0.476259
364 1 -0.031303125 0.000116666666667 0.007678125 0.363488
365 1 -0.031303125 0.000116666666667 0.008859375 0.458855
366 1 -0.031303125 0.000116666666667 0.010040625 0.349562
367 1 -0.031303125 0.000116666666667 0.011221875 0.437532
368 1 -0.031303125 0.000116666666667 0.012403125 0.33422
369 1 -0.031303125 0.000116666666667 0.013584375 0.416114
370 1 -0.031303125 0.000116666666667 0.014765625 0.318559
371 1 -0.031303125 0.000116666666667 0.015946875 0.392672
372 1 -0.031303125 0.000116666666667 0.017128125 0.304591
373 1 -0.031303125 0.000116666666667 0.018309375 0.370236
374 1 -0.031303125 0.000116666666667 0.019490625 0.291696
375 1 -0.030121875 -0.00261666666667 -0.020671875 0.233563
376 1 -0.030121875 -0.00261666666667 -0.019490625 0.2276
377 1 -0.030121875 -0.00261666666667 -0.018309375 0.252035
378 1 -0.030121875 -0.00261666666667 -0.017128125 0.244325
379 1 -0.030121875 -0.00261666666667 -0.015946875 0.276912
380 1 -0.030121875 -0.00261666666667 -0.014765625 0.264472
381 1 -0.030121875 -0.00261666666667 -0.013584375 0.305519
382 1 -0.030121875 -0.00261666666667 -0.012403125 0.284235
383 1 -0.030121875 -0.00261666666667 -0.011221875 0.334322
384 1 -0.030121875 -0.00261666666667 -0.010040625 0.302964
385 1 -0.030121875 -0.00261666666667 -0.008859375 0.361619
386 1 -0.030121875 -0.00261666666667 -0.007678125 0.320385
387 1 -0.030121875 -0.00261666666667 -0.006496875 0.38708
388 1 -0.030121875 -0.00261666666667 -0.005315625 0.334316
389 1 -0.030121875 -0.00261666666667 -0.004134375 0.410925
390 1 -0.030121875 -0.00261666666667 -0.002953125 0.346684
391 1 -0.030121875 -0.00261666666667 -0.001771875 0.430661
392 1 -0.030121875 -0.00261666666667 -0.000590625 0.356968
393 1 -0.030121875 -0.00261666666667 0.000590625 0.445383
394 1 -0.030121875 -0.00261666666667 0.001771875 0.3637
395 1 -0.030121875 -0.00261666666667 0.002953125 0.451919
396 1 -0.030121875 -0.00261666666667 0.004134375 0.355941
397 1 -0.030121875 -0.00261666666667 0.005315625 0.446809
398 1 -0.030121875 -0.00261666666667 0.006496875 0.341395
399 1 -0.030121875 -0.00261666666667 0.007678125 0.426993
400 1 -0.030121875 -0.00261666666667 0.008859375 0.318061
401 1 -0.030121875 -0.00261666666667 0.010040625 0.398146
402 1 -0.030121875 -0.00261666666667 0.011221875 0.293481
403 1 -0.030121875 -0.00261666666667 0.012403125 0.36521
404 1 -0.030121875 -0.00261666666667 0.013584375 0.26922
405 1 -0.030121875 -0.00261666666667 0.014765625 0.331606
406 1 -0.030121875 -0.00261666666667 0.015946875 0.245632
407 1 -0.030121875 -0.00261666666667 0.017128125 0.299112
408 1 -0.030121875 -0.00261666666667 0.018309375 0.223647
409 1 -0.030121875 -0.00261666666667 0.019490625 0.267216
410 1 -0.030121875 -0.00261666666667 0.020671875 0.205899
411 1 -0.030121875 -0.00125 -0.020671875 0.233563
412 1 -0.030121875 -0.00125 -0.019490625 0.2276
413 1 -0.030121875 -0.00125 -0.018309375 0.252035
414 1 -0.030121875 -0.00125 -0.017128125 0.244325
415 1 -0.030121875 -0.00125 -0.015946875 0.276912
416 1 -0.030121875 -0.00125 -0.014765625 0.264472
417 1 -0.030121875 -0.00125 -0.013584375 0.305519
418 1 -0.030121875 -0.00125 -0.012403125 0.284235
419 1 -0.030121875 -0.00125 -0.011221875 0.334322
420 1 -0.030121875 -0.00125 -0.010040625 0.302964
421 1 -0.030121875 -0.00125 -0.008859375 0.361619
422 1 -0.030121875 -0.00125 -0.007678125 0.320385
423 1 -0.030121875 -0.00125 -0.006496875 0.38708
424 1 -0.030121875 -0.00125 -0.005315625 0.334316
425 1 -0.030121875 -0.00125 -0.004134375 0.410925
426 1 -0.030121875 -0.00125 -0.002953125 0.346684
427 1 -0.030121875 -0.00125 -0.001771875 0.430661
428 1 -0.030121875 -0.00125 -0.000590625 0.356968
429 1 -0.030121875 -0.00125 0.000590625 0.445383
430 1 -0.030121875 -0.00125 0.001771875 0.3637
431 1 -0.030121875 -0.00125 0.002953125 0.451919
432 1 -0.030121875 -0.00125 0.004134375 0.355941
433 1 -0.030121875 -0.00125 0.005315625 0.446809
434 1 -0.030121875 -0.00125 0.006496875 0.341395
435 1 -0.030121875 -0.00125 0.007678125 0.426993
436 1 -0.030121875 -0.00125 0.008859375 0.318061
437 1 -0.030121875 -0.00125 0.010040625 0.398146
438 1 -0.030121875 -0.00125 0.011221875 0.293481
439 1 -0.030121875 -0.00125 0.012403125 0.36521
440 1 -0.030121875 -0.00125 0.013584375 0.26922
441 1 -0.030121875 -0.00125 0.014765625 0.331606
442 1 -0.030121875 -0.00125 0.015946875 0.245632
443 1 -0.030121875 -0.00125 0.017128125 0.299112
444 1 -0.030121875 -0.00125 0.018309375 0.223647
445 1 -0.030121875 -0.00125 0.019490625 0.267216
446 1 -0.030121875 -0.00125 0.020671875 0.205899
447 1 -0.030121875 0.000116666666667 -0.020671875 0.233563
448 1 -0.030121875 0.000116666666667 -0.019490625 0.2276
449 1 -0.030121875 0.000116666666667 -0.018309375 0.252035
450 1 -0.030121875 0.000116666666667 -0.017128125 0.244325
451 1 -0.030121875 0.000116666666667 -0.015946875 0.276912
452 1 -0.030121875 0.000116666666667 -0.014765625 0.264472
453 1 -0.030121875 0.000116666666667 -0.013584375 0.305519
454 1 -0.030121875 0.000116666666667 -0.012403125 0.284235
455 1 -0.030121875 0.000116666666667 -0.011221875 0.334322
456 1 -0.030121875 0.000116666666667 -0.010040625 0.302964
457 1 -0.030121875 0.000116666666667 -0.008859375 0.361619
458 1 -0.030121875 0.000116666666667 -0.007678125 0.320385
459 1 -0.030121875 0.000116666666667 -0.006496875 0.38708
460 1 -0.030121875 0.000116666666667 -0.005315625 0.334316
461 1 -0.030121875 0.000116666666667 -0.004134375 0.410925
462 1 -0.030121875 0.000116666666667 -0.002953125 0.346684
463 1 -0.030121875 0.000116666666667 -0.001771875 0.430661
464 1 -0.030121875 0.000116666666667 -0.000590625 0.356968
465 1 -0.030121875 0.000116666666667 0.000590625 0.445383
466 1 -0.030121875 0.000116666666667 0.001771875 0.3637
467 1 -0.030121875 0.000116666666667 0.002953125 0.451919
468 1 -0.030121875 0.000116666666667 0.004134375 0.355941
469 1 -0.030121875 0.000116666666667 0.005315625 0.446809
470 1 -0.030121875 0.000116666666667 0.006496875 0.341395
471 1 -0.030121875 0.000116666666667 0.007678125 0.426993
472 1 -0.030121875 0.000116666666667 0.008859375 0.318061
473 1 -0.030121875 0.000116666666667 0.010040625 0.398146
474 1 -0.030121875 0.000116666666667 0.011221875 0.293481
475 1 -0.030121875 0.000116666666667 0.012403125 0.36521
476 1 -0.030121875 0.000116666666667 0.013584375 0.26922
477 1 -0.030121875 0.000116666666667 0.014765625 0.331606
478 1 -0.030121875 0.000116666666667 0.015946875 0.245632
479 1 -0.030121875 0.000116666666667 0.017128125 0.299112
480 1 -0.030121875 0.000116666666667 0.018309375 0.223647
481 1 -0.030121875 0.000116666666667 0.019490625 0.267216
482 1 -0.030121875 0.000116666666667 0.020671875 0.205899
483 1 -0.028940625 -0.00261666666667 -0.021853125 0.407258
484 1 -0.028940625 -0.00261666666667 -0.020671875 0.294105
485 1 -0.028940625 -0.00261666666667 -0.019490625 0.429599
486 1 -0.028940625 -0.00261666666667 -0.018309375 0.309184
487 1 -0.028940625 -0.00261666666667 -0.017128125 0.451107
488 1 -0.028940625 -0.00261666666667 -0.015946875 0.327136
489 1 -0.028940625 -0.00261666666667 -0.014765625 0.47386
490 1 -0.028940625 -0.00261666666667 -0.013584375 0.345755
491 1 -0.028940625 -0.00261666666667 -0.012403125 0.493782
492 1 -0.028940625 -0.00261666666667 -0.011221875 0.366596
493 1 -0.028940625 -0.00261666666667 -0.010040625 0.514203
494 1 -0.028940625 -0.00261666666667 -0.008859375 0.38489
495 1 -0.028940625 -0.00261666666667 -0.007678125 0.528646
496 1 -0.028940625 -0.00261666666667 -0.006496875 0.401963
497 1 -0.028940625 -0.00261666666667 -0.005315625 0.541774
498 1 -0.028940625 -0.00261666666667 -0.004134375 0.41405
499 1 -0.028940625 -0.00261666666667 -0.002953125 0.548607
500 1 -0.028940625 -0.00261666666667 -0.001771875 0.426102
501 1 -0.028940625 -0.00261666666667 -0.000590625 0.554845
502 1 -0.028940625 -0.00261666666667 0.000590625 0.434589
503 1 -0.028940625 -0.00261666666667 0.001771875 0.554199
504 1 -0.028940625 -0.00261666666667 0.002953125 0.437065
505 1 -0.028940625 -0.00261666666667 0.004134375 0.545443
506 1 -0.028940625 -0.00261666666667 0.005315625 0.428845
507 1 -0.028940625 -0.00261666666667 0.006496875 0.528596
508 1 -0.028940625 -0.00261666666667 0.007678125 0.413658
509 1 -0.028940625 -0.00261666666667 0.008859375 0.505474
510 1 -0.028940625 -0.00261666666667 0.010040625 0.393511
511 1 -0.028940625 -0.00261666666667 0.011221875 0.477596
512 1 -0.028940625 -0.00261666666667 0.012403125 0.371364
513 1 -0.028940625 -0.00261666666667 0.013584375 0.449335
514 1 -0.028940625 -0.00261666666667 0.014765625 0.349826
515 1 -0.028940625 -0.00261666666667 0.015946875 0.420773
516 1 -0.028940625 -0.00261666666667 0.017128125 0.33086
517 1 -0.028940625 -0.00261666666667 0.018309375 0.395428
518 1 -0.028940625 -0.00261666666667 0.019490625 0.3128
519 1 -0.028940625 -0.00261666666667 0.020671875 0.3694
520 1 -0.028940625 -0.00261666666667 0.021853125 0.297035
521 1 -0.028940625 -0.00125 -0.021853125 0.407258
522 1 -0.028940625 -0.00125 -0.020671875 0.294105
523 1 -0.028940625 -0.00125 -0.019490625 0.429599
524 1 -0.028940625 -0.00125 -0.018309375 0.309184
525 1 -0.028940625 -0.00125 -0.017128125 0.451107
526 1 -0.028940625 -0.00125 -0.015946875 0.327136
527 1 -0.028940625 -0.00125 -0.014765625 0.47386
528 1 -0.028940625 -0.00125 -0.013584375 0.345755
529 1 -0.028940625 -0.00125 -0.012403125 0.493782
530 1 -0.028940625 -0.00125 -0.011221875 0.366596
531 1 -0.028940625 -0.00125 -0.010040625 0.514203
532 1 -0.028940625 -0.00125 -0.008859375 0.38489
533 1 -0.028940625 -0.00125 -0.007678125 0.528646
534 1 -0.028940625 -0.00125 -0.006496875 0.401963
535 1 -0.028940625 -0.00125 -0.005315625 0.541774
536 1 -0.028940625 -0.00125 -0.004134375 0.41405
537 1 -0.028940625 -0.00125 -0.002953125 0.548607
538 1 -0.028940625 -0.00125 -0.001771875 0.426102