ITEM: TIMESTEP
0
ITEM: NUMBER OF ATOMS
9240
ITEM: BOX BOUNDS ss ss ss
-3.7007399999999996e-02 3.7007399999999996e-02
-2.0002499999999999e-03 2.5000000000000004e-07
-3.7007399999999996e-02 3.7007399999999996e-02
ITEM: ATOMS id type x y z c_1
0 1 -0.037209375 -0.00261666666667 -0.000590625 0.323479
1 1 -0.037209375 -0.00125 -0.000590625 0.323479
2 1 -0.037209375 0.000116666666667 -0.000590625 0.323479
3 1 -0.036028125 -0.00261666666667 -0.007678125 0.226214
4 1 -0.036028125 -0.00261666666667 -0.006496875 0.130037
5 1 -0.036028125 -0.00261666666667 -0.005315625 0.239434
6 1 -0.036028125 -0.00261666666667 -0.004134375 0.142208
7 1 -0.036028125 -0.00261666666667 -0.002953125 0.251033
8 1 -0.036028125 -0.00261666666667 -0.001771875 0.154169
9 1 -0.036028125 -0.00261666666667 -0.000590625 0.26308
10 1 -0.036028125 -0.00261666666667 0.000590625 0.16473
11 1 -0.036028125 -0.00261666666667 0.001771875 0.271944
12 1 -0.036028125 -0.00261666666667 0.002953125 0.169617
13 1 -0.036028125 -0.00261666666667 0.004134375 0.271342
14 1 -0.036028125 -0.00261666666667 0.005315625 0.16367
15 1 -0.036028125 -0.00261666666667 0.006496875 0.25857
16 1 -0.036028125 -0.00261666666667 0.007678125 0.148962
17 1 -0.036028125 -0.00125 -0.007678125 0.226214
18 1 -0.036028125 -0.00125 -0.006496875 0.130037
19 1 -0.036028125 -0.00125 -0.005315625 0.239434
20 1 -0.036028125 -0.00125 -0.004134375 0.142208
21 1 -0.036028125 -0.00125 -0.002953125 0.251033
22 1 -0.036028125 -0.00125 -0.001771875 0.154169
23 1 -0.036028125 -0.00125 -0.000590625 0.26308
24 1 -0.036028125 -0.00125 0.000590625 0.16473
25 1 -0.036028125 -0.00125 0.001771875 0.271944
26 1 -0.036028125 -0.00125 0.002953125 0.169617
27 1 -0.036028125 -0.00125 0.004134375 0.271342
28 1 -0.036028125 -0.00125 0.005315625 0.16367
29 1 -0.036028125 -0.00125 0.006496875 0.25857
30 1 -0.036028125 -0.00125 0.007678125 0.148962
31 1 -0.036028125 0.000116666666667 -0.007678125 0.226214
32 1 -0.036028125 0.000116666666667 -0.006496875 0.130037
33 1 -0.036028125 0.000116666666667 -0.005315625 0.239434
34 1 -0.036028125 0.000116666666667 -0.004134375 0.142208
35 1 -0.036028125 0.000116666666667 -0.002953125 0.251033
36 1 -0.036028125 0.000116666666667 -0.001771875 0.154169
37 1 -0.036028125 0.000116666666667 -0.000590625 0.26308
38 1 -0.036028125 0.000116666666667 0.000590625 0.16473
39 1 -0.036028125 0.000116666666667 0.001771875 0.271944
40 1 -0.036028125 0.000116666666667 0.002953125 0.169617
41 1 -0.036028125 0.000116666666667 0.004134375 0.271342
42 1 -0.036028125 0.000116666666667 0.005315625 0.16367
43 1 -0.036028125 0.000116666666667 0.006496875 0.25857
44 1 -0.036028125 0.000116666666667 0.007678125 0.148962
45 1 -0.034846875 -0.00261666666667 -0.011221875 0.104873
46 1 -0.034846875 -0.00261666666667 -0.010040625 0.180129
47 1 -0.034846875 -0.00261666666667 -0.008859375 0.122587
48 1 -0.034846875 -0.00261666666667 -0.007678125 0.195823
49 1 -0.034846875 -0.00261666666667 -0.006496875 0.137364
50 1 -0.034846875 -0.00261666666667 -0.005315625 0.208678
51 1 -0.034846875 -0.00261666666667 -0.004134375 0.151961
52 1 -0.034846875 -0.00261666666667 -0.002953125 0.220868
53 1 -0.034846875 -0.00261666666667 -0.001771875 0.166844
54 1 -0.034846875 -0.00261666666667 -0.000590625 0.231824
55 1 -0.034846875 -0.00261666666667 0.000590625 0.180674
56 1 -0.034846875 -0.00261666666667 0.001771875 0.239307
57 1 -0.034846875 -0.00261666666667 0.002953125 0.187861
58 1 -0.034846875 -0.00261666666667 0.004134375 0.234929
59 1 -0.034846875 -0.00261666666667 0.005315625 0.184545
60 1 -0.034846875 -0.00261666666667 0.006496875 0.219841
61 1 -0.034846875 -0.00261666666667 0.007678125 0.166914
62 1 -0.034846875 -0.00261666666667 0.008859375 0.194712
63 1 -0.034846875 -0.00261666666667 0.010040625 0.141419
64 1 -0.034846875 -0.00261666666667 0.011221875 0.167842
65 1 -0.034846875 -0.00125 -0.011221875 0.104873
66 1 -0.034846875 -0.00125 -0.010040625 0.180129
67 1 -0.034846875 -0.00125 -0.008859375 0.122587
68 1 -0.034846875 -0.00125 -0.007678125 0.195823
69 1 -0.034846875 -0.00125 -0.006496875 0.137364
70 1 -0.034846875 -0.00125 -0.005315625 0.208678
71 1 -0.034846875 -0.00125 -0.004134375 0.151961
72 1 -0.034846875 -0.00125 -0.002953125 0.220868
73 1 -0.034846875 -0.00125 -0.001771875 0.166844
74 1 -0.034846875 -0.00125 -0.000590625 0.231824
75 1 -0.034846875 -0.00125 0.000590625 0.180674
76 1 -0.034846875 -0.00125 0.001771875 0.239307
77 1 -0.034846875 -0.00125 0.002953125 0.187861
78 1 -0.034846875 -0.00125 0.004134375 0.234929
79 1 -0.034846875 -0.00125 0.005315625 0.184545
80 1 -0.034846875 -0.00125 0.006496875 0.219841
81 1 -0.034846875 -0.00125 0.007678125 0.166914
82 1 -0.034846875 -0.00125 0.008859375 0.194712
83 1 -0.034846875 -0.00125 0.010040625 0.141419
84 1 -0.034846875 -0.00125 0.011221875 0.167842
85 1 -0.034846875 0.000116666666667 -0.011221875 0.104873
86 1 -0.034846875 0.000116666666667 -0.010040625 0.180129
87 1 -0.034846875 0.000116666666667 -0.008859375 0.122587
88 1 -0.034846875 0.000116666666667 -0.007678125 0.195823
89 1 -0.034846875 0.000116666666667 -0.006496875 0.137364
90 1 -0.034846875 0.000116666666667 -0.005315625 0.208678
91 1 -0.034846875 0.000116666666667 -0.004134375 0.151961
92 1 -0.034846875 0.000116666666667 -0.002953125 0.220868
93 1 -0.034846875 0.000116666666667 -0.001771875 0.166844
94 1 -0.034846875 0.000116666666667 -0.000590625 0.231824
95 1 -0.034846875 0.000116666666667 0.000590625 0.180674
96 1 -0.034846875 0.000116666666667 0.001771875 0.239307
97 1 -0.034846875 0.000116666666667 0.002953125 0.187861
98 1 -0.034846875 0.000116666666667 0.004134375 0.234929
99 1 -0.034846875 0.000116666666667 0.005315625 0.184545
100 1 -0.034846875 0.000116666666667 0.006496875 0.219841
101 1 -0.034846875 0.000116666666667 0.007678125 0.166914
102 1 -0.034846875 0.000116666666667 0.008859375 0.194712
103 1 -0.034846875 0.000116666666667 0.010040625 0.141419
104 1 -0.034846875 0.000116666666667 0.011221875 0.167842
105 1 -0.033665625 -0.00261666666667 -0.013584375 0.158989
106 1 -0.033665625 -0.00261666666667 -0.012403125 0.26905
107 1 -0.033665625 -0.00261666666667 -0.011221875 0.201018
108 1 -0.033665625 -0.00261666666667 -0.010040625 0.303695
109 1 -0.033665625 -0.00261666666667 -0.008859375 0.236381
110 1 -0.033665625 -0.00261666666667 -0.007678125 0.327817
111 1 -0.033665625 -0.00261666666667 -0.006496875 0.264975
112 1 -0.033665625 -0.00261666666667 -0.005315625 0.346397
113 1 -0.033665625 -0.00261666666667 -0.004134375 0.288557
114 1 -0.033665625 -0.00261666666667 -0.002953125 0.363047
115 1 -0.033665625 -0.00261666666667 -0.001771875 0.311405
116 1 -0.033665625 -0.00261666666667 -0.000590625 0.380213
117 1 -0.033665625 -0.00261666666667 0.000590625 0.331308
118 1 -0.033665625 -0.00261666666667 0.001771875 0.392239
119 1 -0.033665625 -0.00261666666667 0.002953125 0.340379
120 1 -0.033665625 -0.00261666666667 0.004134375 0.390921
121 1 -0.033665625 -0.00261666666667 0.005315625 0.329958
122 1 -0.033665625 -0.00261666666667 0.006496875 0.375855
123 1 -0.033665625 -0.00261666666667 0.007678125 0.30058
124 1 -0.033665625 -0.00261666666667 0.008859375 0.343541
125 1 -0.033665625 -0.00261666666667 0.010040625 0.254307
126 1 -0.033665625 -0.00261666666667 0.011221875 0.294844
127 1 -0.033665625 -0.00261666666667 0.012403125 0.198851
128 1 -0.033665625 -0.00261666666667 0.013584375 0.240203
129 1 -0.033665625 -0.00125 -0.013584375 0.158989
130 1 -0.033665625 -0.00125 -0.012403125 0.26905
131 1 -0.033665625 -0.00125 -0.011221875 0.201018
132 1 -0.033665625 -0.00125 -0.010040625 0.303695
133 1 -0.033665625 -0.00125 -0.008859375 0.236381
134 1 -0.033665625 -0.00125 -0.007678125 0.327817
135 1 -0.033665625 -0.00125 -0.006496875 0.264975
136 1 -0.033665625 -0.00125 -0.005315625 0.346397
137 1 -0.033665625 -0.00125 -0.004134375 0.288557
138 1 -0.033665625 -0.00125 -0.002953125 0.363047
139 1 -0.033665625 -0.00125 -0.001771875 0.311405
140 1 -0.033665625 -0.00125 -0.000590625 0.380213
141 1 -0.033665625 -0.00125 0.000590625 0.331308
142 1 -0.033665625 -0.00125 0.001771875 0.392239
143 1 -0.033665625 -0.00125 0.002953125 0.340379
144 1 -0.033665625 -0.00125 0.004134375 0.390921
145 1 -0.033665625 -0.00125 0.005315625 0.329958
146 1 -0.033665625 -0.00125 0.006496875 0.375855
147 1 -0.033665625 -0.00125 0.007678125 0.30058
148 1 -0.033665625 -0.00125 0.008859375 0.343541
149 1 -0.033665625 -0.00125 0.010040625 0.254307
150 1 -0.033665625 -0.00125 0.011221875 0.294844
151 1 -0.033665625 -0.00125 0.012403125 0.198851
152 1 -0.033665625 -0.00125 0.013584375 0.240203
153 1 -0.033665625 0.000116666666667 -0.013584375 0.158989
154 1 -0.033665625 0.000116666666667 -0.012403125 0.26905
155 1 -0.033665625 0.000116666666667 -0.011221875 0.201018
156 1 -0.033665625 0.000116666666667 -0.010040625 0.303695
157 1 -0.033665625 0.000116666666667 -0.008859375 0.236381
158 1 -0.033665625 0.000116666666667 -0.007678125 0.327817
159 1 -0.033665625 0.000116666666667 -0.006496875 0.264975
160 1 -0.033665625 0.000116666666667 -0.005315625 0.346397
161 1 -0.033665625 0.000116666666667 -0.004134375 0.288557
162 1 -0.033665625 0.000116666666667 -0.002953125 0.363047
163 1 -0.033665625 0.000116666666667 -0.001771875 0.311405
164 1 -0.033665625 0.000116666666667 -0.000590625 0.380213
165 1 -0.033665625 0.000116666666667 0.000590625 0.331308
166 1 -0.033665625 0.000116666666667 0.001771875 0.392239
167 1 -0.033665625 0.000116666666667 0.002953125 0.340379
168 1 -0.033665625 0.000116666666667 0.004134375 0.390921
169 1 -0.033665625 0.000116666666667 0.005315625 0.329958
170 1 -0.033665625 0.000116666666667 0.006496875 0.375855
171 1 -0.033665625 0.000116666666667 0.007678125 0.30058
172 1 -0.033665625 0.000116666666667 0.008859375 0.343541
173 1 -0.033665625 0.000116666666667 0.010040625 0.254307
174 1 -0.033665625 0.000116666666667 0.011221875 0.294844
175 1 -0.033665625 0.000116666666667 0.012403125 0.198851
176 1 -0.033665625 0.000116666666667 0.013584375 0.240203
177 1 -0.032484375 -0.00261666666667 -0.018309375 0.12494
178 1 -0.032484375 -0.00261666666667 -0.017128125 0.181145
179 1 -0.032484375 -0.00261666666667 -0.015946875 0.182589
180 1 -0.032484375 -0.00261666666667 -0.014765625 0.230677
181 1 -0.032484375 -0.00261666666667 -0.013584375 0.248056
182 1 -0.032484375 -0.00261666666667 -0.012403125 0.280726
183 1 -0.032484375 -0.00261666666667 -0.011221875 0.307651
184 1 -0.032484375 -0.00261666666667 -0.010040625 0.315256
185 1 -0.032484375 -0.00261666666667 -0.008859375 0.350563
186 1 -0.032484375 -0.00261666666667 -0.007678125 0.340208
187 1 -0.032484375 -0.00261666666667 -0.006496875 0.378432
188 1 -0.032484375 -0.00261666666667 -0.005315625 0.358023
189 1 -0.032484375 -0.00261666666667 -0.004134375 0.400591
190 1 -0.032484375 -0.00261666666667 -0.002953125 0.37442
191 1 -0.032484375 -0.00261666666667 -0.001771875 0.422595
192 1 -0.032484375 -0.00261666666667 -0.000590625 0.388149
193 1 -0.032484375 -0.00261666666667 0.000590625 0.444882
194 1 -0.032484375 -0.00261666666667 0.001771875 0.398726
195 1 -0.032484375 -0.00261666666667 0.002953125 0.457665
196 1 -0.032484375 -0.00261666666667 0.004134375 0.394641
197 1 -0.032484375 -0.00261666666667 0.005315625 0.456412
198 1 -0.032484375 -0.00261666666667 0.006496875 0.377463
199 1 -0.032484375 -0.00261666666667 0.007678125 0.430578
200 1 -0.032484375 -0.00261666666667 0.008859375 0.337838
201 1 -0.032484375 -0.00261666666667 0.010040625 0.380051
202 1 -0.032484375 -0.00261666666667 0.011221875 0.284375
203 1 -0.032484375 -0.00261666666667 0.012403125 0.304037
204 1 -0.032484375 -0.00261666666667 0.013584375 0.22151
205 1 -0.032484375 -0.00261666666667 0.014765625 0.21959
206 1 -0.032484375 -0.00261666666667 0.015946875 0.16602
207 1 -0.032484375 -0.00261666666667 0.017128125 0.148507
208 1 -0.032484375 -0.00261666666667 0.018309375 0.124884
209 1 -0.032484375 -0.00125 -0.018309375 0.12494
210 1 -0.032484375 -0.00125 -0.017128125 0.181145
211 1 -0.032484375 -0.00125 -0.015946875 0.182589
212 1 -0.032484375 -0.00125 -0.014765625 0.230677
213 1 -0.032484375 -0.00125 -0.013584375 0.248056
214 1 -0.032484375 -0.00125 -0.012403125 0.280726
215 1 -0.032484375 -0.00125 -0.011221875 0.307651
216 1 -0.032484375 -0.00125 -0.010040625 0.315256
217 1 -0.032484375 -0.00125 -0.008859375 0.350563
218 1 -0.032484375 -0.00125 -0.007678125 0.340208
219 1 -0.032484375 -0.00125 -0.006496875 0.378432
220 1 -0.032484375 -0.00125 -0.005315625 0.358023
221 1 -0.032484375 -0.00125 -0.004134375 0.400591
222 1 -0.032484375 -0.00125 -0.002953125 0.37442
223 1 -0.032484375 -0.00125 -0.001771875 0.422595
224 1 -0.032484375 -0.00125 -0.000590625 0.388149
225 1 -0.032484375 -0.00125 0.000590625 0.444882
226 1 -0.032484375 -0.00125 0.001771875 0.398726
227 1 -0.032484375 -0.00125 0.002953125 0.457665
228 1 -0.032484375 -0.00125 0.004134375 0.394641
229 1 -0.032484375 -0.00125 0.005315625 0.456412
230 1 -0.032484375 -0.00125 0.006496875 0.377463
231 1 -0.032484375 -0.00125 0.007678125 0.430578
232 1 -0.032484375 -0.00125 0.008859375 0.337838
233 1 -0.032484375 -0.00125 0.010040625 0.380051
234 1 -0.032484375 -0.00125 0.011221875 0.284375
235 1 -0.032484375 -0.00125 0.012403125 0.304037
236 1 -0.032484375 -0.00125 0.013584375 0.22151
237 1 -0.032484375 -0.00125 0.014765625 0.21959
238 1 -0.032484375 -0.00125 0.015946875 0.16602
239 1 -0.032484375 -0.00125 0.017128125 0.148507
240 1 -0.032484375 -0.00125 0.018309375 0.124884
241 1 -0.032484375 0.000116666666667 -0.018309375 0.12494
242 1 -0.032484375 0.000116666666667 -0.017128125 0.181145
243 1 -0.032484375 0.000116666666667 -0.015946875 0.182589
244 1 -0.032484375 0.000116666666667 -0.014765625 0.230677
245 1 -0.032484375 0.000116666666667 -0.013584375 0.248056
246 1 -0.032484375 0.000116666666667 -0.012403125 0.280726
247 1 -0.032484375 0.000116666666667 -0.011221875 0.307651
248 1 -0.032484375 0.000116666666667 -0.010040625 0.315256
249 1 -0.032484375 0.000116666666667 -0.008859375 0.350563
250 1 -0.032484375 0.000116666666667 -0.007678125 0.340208
251 1 -0.032484375 0.000116666666667 -0.006496875 0.378432
252 1 -0.032484375 0.000116666666667 -0.005315625 0.358023
253 1 -0.032484375 0.000116666666667 -0.004134375 0.400591
254 1 -0.032484375 0.000116666666667 -0.002953125 0.37442
255 1 -0.032484375 0.000116666666667 -0.001771875 0.422595
256 1 -0.032484375 0.000116666666667 -0.000590625 0.388149
257 1 -0.032484375 0.000116666666667 0.000590625 0.444882
258 1 -0.032484375 0.000116666666667 0.001771875 0.398726
259 1 -0.032484375 0.000116666666667 0.002953125 0.457665
260 1 -0.032484375 0.000116666666667 0.004134375 0.394641
261 1 -0.032484375 0.000116666666667 0.005315625 0.456412
262 1 -0.032484375 0.000116666666667 0.006496875 0.377463
263 1 -0.032484375 0.000116666666667 0.007678125 0.430578
264 1 -0.032484375 0.000116666666667 0.008859375 0.337838
265 1 -0.032484375 0.000116666666667 0.010040625 0.380051
266 1 -0.032484375 0.000116666666667 0.011221875 0.284375
267 1 -0.032484375 0.000116666666667 0.012403125 0.304037
268 1 -0.032484375 0.000116666666667 0.013584375 0.22151
269 1 -0.032484375 0.000116666666667 0.014765625 0.21959
270 1 -0.032484375 0.000116666666667 0.015946875 0.16602
271 1 -0.032484375 0.000116666666667 0.017128125 0.148507
272 1 -0.032484375 0.000116666666667 0.018309375 0.124884
273 1 -0.031303125 -0.00261666666667 -0.019490625 0.244456
274 1 -0.031303125 -0.00261666666667 -0.018309375 0.209807
275 1 -0.031303125 -0.00261666666667 -0.017128125 0.314519
276 1 -0.031303125 -0.00261666666667 -0.015946875 0.303235
277 1 -0.031303125 -0.00261666666667 -0.014765625 0.384805
278 1 -0.031303125 -0.00261666666667 -0.013584375 0.390939
279 1 -0.031303125 -0.00261666666667 -0.012403125 0.438841
280 1 -0.031303125 -0.00261666666667 -0.011221875 0.458974
281 1 -0.031303125 -0.00261666666667 -0.010040625 0.473666
282 1 -0.031303125 -0.00261666666667 -0.008859375 0.501462
283 1 -0.031303125 -0.00261666666667 -0.007678125 0.493937
284 1 -0.031303125 -0.00261666666667 -0.006496875 0.528641
285 1 -0.031303125 -0.00261666666667 -0.005315625 0.509732
286 1 -0.031303125 -0.00261666666667 -0.004134375 0.547818
287 1 -0.031303125 -0.00261666666667 -0.002953125 0.523906
288 1 -0.031303125 -0.00261666666667 -0.001771875 0.566009
289 1 -0.031303125 -0.00261666666667 -0.000590625 0.537945
290 1 -0.031303125 -0.00261666666667 0.000590625 0.581552
291 1 -0.031303125 -0.00261666666667 0.001771875 0.549574
292 1 -0.031303125 -0.00261666666667 0.002953125 0.592496
293 1 -0.031303125 -0.00261666666667 0.004134375 0.553561
294 1 -0.031303125 -0.00261666666667 0.005315625 0.590893
295 1 -0.031303125 -0.00261666666667 0.006496875 0.543678
296 1 -0.031303125 -0.00261666666667 0.007678125 0.568179
297 1 -0.031303125 -0.00261666666667 0.008859375 0.513149
298 1 -0.031303125 -0.00261666666667 0.010040625 0.518144
299 1 -0.031303125 -0.00261666666667 0.011221875 0.462182
300 1 -0.031303125 -0.00261666666667 0.012403125 0.439657
301 1 -0.031303125 -0.00261666666667 0.013584375 0.391584
302 1 -0.031303125 -0.00261666666667 0.014765625 0.337805
303 1 -0.031303125 -0.00261666666667 0.015946875 0.307128
304 1 -0.031303125 -0.00261666666667 0.017128125 0.239436
305 1 -0.031303125 -0.00261666666667 0.018309375 0.234388
306 1 -0.031303125 -0.00261666666667 0.019490625 0.16712
307 1 -0.031303125 -0.00125 -0.019490625 0.244456
308 1 -0.031303125 -0.00125 -0.018309375 0.209807
309 1 -0.031303125 -0.00125 -0.017128125 0.314519
310 1 -0.031303125 -0.00125 -0.015946875 0.303235
311 1 -0.031303125 -0.00125 -0.014765625 0.384805
312 1 -0.031303125 -0.00125 -0.013584375 0.390939
313 1 -0.031303125 -0.00125 -0.012403125 0.438841
314 1 -0.031303125 -0.00125 -0.011221875 0.458974
315 1 -0.031303125 -0.00125 -0.010040625 0.473666
316 1 -0.031303125 -0.00125 -0.008859375 0.501462
317 1 -0.031303125 -0.00125 -0.007678125 0.493937
318 1 -0.031303125 -0.00125 -0.006496875 0.528641
319 1 -0.031303125 -0.00125 -0.005315625 0.509732
320 1 -0.031303125 -0.00125 -0.004134375 0.547818
321 1 -0.031303125 -0.00125 -0.002953125 0.523906
322 1 -0.031303125 -0.00125 -0.001771875 0.566009
323 1 -0.031303125 -0.00125 -0.000590625 0.537945
324 1 -0.031303125 -0.00125 0.000590625 0.581552
325 1 -0.031303125 -0.00125 0.001771875 0.549574
326 1 -0.031303125 -0.00125 0.002953125 0.592496
327 1 -0.031303125 -0.00125 0.004134375 0.553561
328 1 -0.031303125 -0.00125 0.005315625 0.590893
329 1 -0.031303125 -0.00125 0.006496875 0.543678
330 1 -0.031303125 -0.00125 0.007678125 0.568179
331 1 -0.031303125 -0.00125 0.008859375 0.513149
332 1 -0.031303125 -0.00125 0.010040625 0.518144
333 1 -0.031303125 -0.00125 0.011221875 0.462182
334 1 -0.031303125 -0.00125 0.012403125 0.439657
335 1 -0.031303125 -0.00125 0.013584375 0.391584
336 1 -0.031303125 -0.00125 0.014765625 0.337805
337 1 -0.031303125 -0.00125 0.015946875 0.307128
338 1 -0.031303125 -0.00125 0.017128125 0.239436
339 1 -0.031303125 -0.00125 0.018309375 0.234388
340 1 -0.031303125 -0.00125 0.019490625 0.16712
341 1 -0.031303125 0.000116666666667 -0.019490625 0.244456
342 1 -0.031303125 0.000116666666667 -0.018309375 0.209807
343 1 -0.031303125 0.000116666666667 -0.017128125 0.314519
344 1 -0.031303125 0.000116666666667 -0.015946875 0.303235
345 1 -0.031303125 0.000116666666667 -0.014765625 0.384805
346 1 -0.031303125 0.000116666666667 -0.013584375 0.390939
347 1 -0.031303125 0.000116666666667 -0.012403125 0.438841
348 1 -0.031303125 0.000116666666667 -0.011221875 0.458974
349 1 -0.031303125 0.000116666666667 -0.010040625 0.473666
350 1 -0.031303125 0.000116666666667 -0.008859375 0.501462
351 1 -0.031303125 0.000116666666667 -0.007678125 0.493937
352 1 -0.031303125 0.000116666666667 -0.006496875 0.528641
353 1 -0.031303125 0.000116666666667 -0.005315625 0.509732
354 1 -0.031303125 0.000116666666667 -0.004134375 0.547818
355 1 -0.031303125 0.000116666666667 -0.002953125 0.523906
356 1 -0.031303125 0.000116666666667 -0.001771875 0.566009
357 1 -0.031303125 0.000116666666667 -0.000590625 0.537945
358 1 -0.031303125 0.000116666666667 0.000590625 0.581552
359 1 -0.031303125 0.000116666666667 0.001771875 0.549574
360 1 -0.031303125 0.000116666666667 0.002953125 0.592496
361 1 -0.031303125 0.000116666666667 0.004134375 0.553561
362 1 -0.031303125 0.000116666666667 0.005315625 0.590893
363 1 -0.031303125 0.000116666666667 0.006496875 0.543678
364 1 -0.031303125 0.000116666666667 0.007678125 0.568179
365 1 -0.031303125 0.000116666666667 0.008859375 0.513149
366 1 -0.031303125 0.000116666666667 0.010040625 0.518144
367 1 -0.031303125 0.000116666666667 0.011221875 0.462182
368 1 -0.031303125 0.000116666666667 0.012403125 0.439657
369 1 -0.031303125 0.000116666666667 0.013584375 0.391584
370 1 -0.031303125 0.000116666666667 0.014765625 0.337805
371 1 -0.031303125 0.000116666666667 0.015946875 0.307128
372 1 -0.031303125 0.000116666666667 0.017128125 0.239436
373 1 -0.031303125 0.000116666666667 0.018309375 0.234388
374 1 -0.031303125 0.000116666666667 0.019490625 0.16712
375 1 -0.030121875 -0.00261666666667 -0.020671875 0.183394
376 1 -0.030121875 -0.00261666666667 -0.019490625 0.24412
377 1 -0.030121875 -0.00261666666667 -0.018309375 0.275875
378 1 -0.030121875 -0.00261666666667 -0.017128125 0.329613
379 1 -0.030121875 -0.00261666666667 -0.015946875 0.371704
380 1 -0.030121875 -0.00261666666667 -0.014765625 0.40673
381 1 -0.030121875 -0.00261666666667 -0.013584375 0.458469
382 1 -0.030121875 -0.00261666666667 -0.012403125 0.460918
383 1 -0.030121875 -0.00261666666667 -0.011221875 0.515226
384 1 -0.030121875 -0.00261666666667 -0.010040625 0.483573
385 1 -0.030121875 -0.00261666666667 -0.008859375 0.539165
386 1 -0.030121875 -0.00261666666667 -0.007678125 0.496375
387 1 -0.030121875 -0.00261666666667 -0.006496875 0.544863
388 1 -0.030121875 -0.00261666666667 -0.005315625 0.50507
389 1 -0.030121875 -0.00261666666667 -0.004134375 0.548584
390 1 -0.030121875 -0.00261666666667 -0.002953125 0.514247
391 1 -0.030121875 -0.00261666666667 -0.001771875 0.556946
392 1 -0.030121875 -0.00261666666667 -0.000590625 0.5253
393 1 -0.030121875 -0.00261666666667 0.000590625 0.571226
394 1 -0.030121875 -0.00261666666667 0.001771875 0.537561
395 1 -0.030121875 -0.00261666666667 0.002953125 0.588453
396 1 -0.030121875 -0.00261666666667 0.004134375 0.539113
397 1 -0.030121875 -0.00261666666667 0.005315625 0.604166
398 1 -0.030121875 -0.00261666666667 0.006496875 0.532028
399 1 -0.030121875 -0.00261666666667 0.007678125 0.602732
400 1 -0.030121875 -0.00261666666667 0.008859375 0.503692
401 1 -0.030121875 -0.00261666666667 0.010040625 0.580781
402 1 -0.030121875 -0.00261666666667 0.011221875 0.458331
403 1 -0.030121875 -0.00261666666667 0.012403125 0.516661
404 1 -0.030121875 -0.00261666666667 0.013584375 0.383685
405 1 -0.030121875 -0.00261666666667 0.014765625 0.411492
406 1 -0.030121875 -0.00261666666667 0.015946875 0.292085
407 1 -0.030121875 -0.00261666666667 0.017128125 0.299707
408 1 -0.030121875 -0.00261666666667 0.018309375 0.217056
409 1 -0.030121875 -0.00261666666667 0.019490625 0.209271
410 1 -0.030121875 -0.00261666666667 0.020671875 0.167428
411 1 -0.030121875 -0.00125 -0.020671875 0.183394
412 1 -0.030121875 -0.00125 -0.019490625 0.24412
413 1 -0.030121875 -0.00125 -0.018309375 0.275875
414 1 -0.030121875 -0.00125 -0.017128125 0.329613
415 1 -0.030121875 -0.00125 -0.015946875 0.371704
416 1 -0.030121875 -0.00125 -0.014765625 0.40673
417 1 -0.030121875 -0.00125 -0.013584375 0.458469
418 1 -0.030121875 -0.00125 -0.012403125 0.460918
419 1 -0.030121875 -0.00125 -0.011221875 0.515226
420 1 -0.030121875 -0.00125 -0.010040625 0.483573
421 1 -0.030121875 -0.00125 -0.008859375 0.539165
422 1 -0.030121875 -0.00125 -0.007678125 0.496375
423 1 -0.030121875 -0.00125 -0.006496875 0.544863
424 1 -0.030121875 -0.00125 -0.005315625 0.50507
425 1 -0.030121875 -0.00125 -0.004134375 0.548584
426 1 -0.030121875 -0.00125 -0.002953125 0.514247
427 1 -0.030121875 -0.00125 -0.001771875 0.556946
428 1 -0.030121875 -0.00125 -0.000590625 0.5253
429 1 -0.030121875 -0.00125 0.000590625 0.571226
430 1 -0.030121875 -0.00125 0.001771875 0.537561
431 1 -0.030121875 -0.00125 0.002953125 0.588453
432 1 -0.030121875 -0.00125 0.004134375 0.539113
433 1 -0.030121875 -0.00125 0.005315625 0.604166
434 1 -0.030121875 -0.00125 0.006496875 0.532028
435 1 -0.030121875 -0.00125 0.007678125 0.602732
436 1 -0.030121875 -0.00125 0.008859375 0.503692
437 1 -0.030121875 -0.00125 0.010040625 0.580781
438 1 -0.030121875 -0.00125 0.011221875 0.458331
439 1 -0.030121875 -0.00125 0.012403125 0.516661
440 1 -0.030121875 -0.00125 0.013584375 0.383685
441 1 -0.030121875 -0.00125 0.014765625 0.411492
442 1 -0.030121875 -0.00125 0.015946875 0.292085
443 1 -0.030121875 -0.00125 0.017128125 0.299707
444 1 -0.030121875 -0.00125 0.018309375 0.217056
445 1 -0.030121875 -0.00125 0.019490625 0.209271
446 1 -0.030121875 -0.00125 0.020671875 0.167428
447 1 -0.030121875 0.000116666666667 -0.020671875 0.183394
448 1 -0.030121875 0.000116666666667 -0.019490625 0.24412
449 1 -0.030121875 0.000116666666667 -0.018309375 0.275875
450 1 -0.030121875 0.000116666666667 -0.017128125 0.329613
451 1 -0.030121875 0.000116666666667 -0.015946875 0.371704
452 1 -0.030121875 0.000116666666667 -0.014765625 0.40673
453 1 -0.030121875 0.000116666666667 -0.013584375 0.458469
454 1 -0.030121875 0.000116666666667 -0.012403125 0.460918
455 1 -0.030121875 0.000116666666667 -0.011221875 0.515226
456 1 -0.030121875 0.000116666666667 -0.010040625 0.483573
457 1 -0.030121875 0.000116666666667 -0.008859375 0.539165
458 1 -0.030121875 0.000116666666667 -0.007678125 0.496375
459 1 -0.030121875 0.000116666666667 -0.006496875 0.544863
460 1 -0.030121875 0.000116666666667 -0.005315625 0.50507
461 1 -0.030121875 0.000116666666667 -0.004134375 0.548584
462 1 -0.030121875 0.000116666666667 -0.002953125 0.514247
463 1 -0.030121875 0.000116666666667 -0.001771875 0.556946
464 1 -0.030121875 0.000116666666667 -0.000590625 0.5253
465 1 -0.030121875 0.000116666666667 0.000590625 0.571226
466 1 -0.030121875 0.000116666666667 0.001771875 0.537561
467 1 -0.030121875 0.000116666666667 0.002953125 0.588453
468 1 -0.030121875 0.000116666666667 0.004134375 0.539113
469 1 -0.030121875 0.000116666666667 0.005315625 0.604166
470 1 -0.030121875 0.000116666666667 0.006496875 0.532028
471 1 -0.030121875 0.000116666666667 0.007678125 0.602732
472 1 -0.030121875 0.000116666666667 0.008859375 0.503692
473 1 -0.030121875 0.000116666666667 0.010040625 0.580781
474 1 -0.030121875 0.000116666666667 0.011221875 0.458331
475 1 -0.030121875 0.000116666666667 0.012403125 0.516661
476 1 -0.030121875 0.000116666666667 0.013584375 0.383685
477 1 -0.030121875 0.000116666666667 0.014765625 0.411492
478 1 -0.030121875 0.000116666666667 0.015946875 0.292085
479 1 -0.030121875 0.000116666666667 0.017128125 0.299707
480 1 -0.030121875 0.000116666666667 0.018309375 0.217056
481 1 -0.030121875 0.000116666666667 0.019490625 0.209271
482 1 -0.030121875 0.000116666666667 0.020671875 0.167428
483 1 -0.028940625 -0.00261666666667 -0.021853125 0.267353
484 1 -0.028940625 -0.00261666666667 -0.020671875 0.239449
485 1 -0.028940625 -0.00261666666667 -0.019490625 0.353531
486 1 -0.028940625 -0.00261666666667 -0.018309375 0.354523
487 1 -0.028940625 -0.00261666666667 -0.017128125 0.435434
488 1 -0.028940625 -0.00261666666667 -0.015946875 0.466103
489 1 -0.028940625 -0.00261666666667 -0.014765625 0.498255
490 1 -0.028940625 -0.00261666666667 -0.013584375 0.546443
491 1 -0.028940625 -0.00261666666667 -0.012403125 0.535886
492 1 -0.028940625 -0.00261666666667 -0.011221875 0.583061
493 1 -0.028940625 -0.00261666666667 -0.010040625 0.549312
494 1 -0.028940625 -0.00261666666667 -0.008859375 0.585607
495 1 -0.028940625 -0.00261666666667 -0.007678125 0.550887
496 1 -0.028940625 -0.00261666666667 -0.006496875 0.582062
497 1 -0.028940625 -0.00261666666667 -0.005315625 0.553732
498 1 -0.028940625 -0.00261666666667 -0.004134375 0.579941
499 1 -0.028940625 -0.00261666666667 -0.002953125 0.557531
500 1 -0.028940625 -0.00261666666667 -0.001771875 0.584072
501 1 -0.028940625 -0.00261666666667 -0.000590625 0.567527
502 1 -0.028940625 -0.00261666666667 0.000590625 0.595086
503 1 -0.028940625 -0.00261666666667 0.001771875 0.579196
504 1 -0.028940625 -0.00261666666667 0.002953125 0.609619
505 1 -0.028940625 -0.00261666666667 0.004134375 0.587216
506 1 -0.028940625 -0.00261666666667 0.005315625 0.621554
507 1 -0.028940625 -0.00261666666667 0.006496875 0.58883
508 1 -0.028940625 -0.00261666666667 0.007678125 0.627003
509 1 -0.028940625 -0.00261666666667 0.008859375 0.578453
510 1 -0.028940625 -0.00261666666667 0.010040625 0.617417
511 1 -0.028940625 -0.00261666666667 0.011221875 0.552139
512 1 -0.028940625 -0.00261666666667 0.012403125 0.575704
513 1 -0.028940625 -0.00261666666667 0.013584375 0.495969
514 1 -0.028940625 -0.00261666666667 0.014765625 0.491161
515 1 -0.028940625 -0.00261666666667 0.015946875 0.414786
516 1 -0.028940625 -0.00261666666667 0.017128125 0.381607
517 1 -0.028940625 -0.00261666666667 0.018309375 0.330691
518 1 -0.028940625 -0.00261666666667 0.019490625 0.284369
519 1 -0.028940625 -0.00261666666667 0.020671875 0.26431
520 1 -0.028940625 -0.00261666666667 0.021853125 0.215605
521 1 -0.028940625 -0.00125 -0.021853125 0.267353
522 1 -0.028940625 -0.00125 -0.020671875 0.239449
523 1 -0.028940625 -0.00125 -0.019490625 0.353531
524 1 -0.028940625 -0.00125 -0.018309375 0.354523
525 1 -0.028940625 -0.00125 -0.017128125 0.435434
526 1 -0.028940625 -0.00125 -0.015946875 0.466103
527 1 -0.028940625 -0.00125 -0.014765625 0.498255
528 1 -0.028940625 -0.00125 -0.013584375 0.546443
529 1 -0.028940625 -0.00125 -0.012403125 0.535886
530 1 -0.028940625 -0.00125 -0.011221875 0.583061
531 1 -0.028940625 -0.00125 -0.010040625 0.549312
532 1 -0.028940625 -0.00125 -0.008859375 0.585607
533 1 -0.028940625 -0.00125 -0.007678125 0.550887
534 1 -0.028940625 -0.00125 -0.006496875 0.582062
535 1 -0.028940625 -0.00125 -0.005315625 0.553732
536 1 -0.028940625 -0.00125 -0.004134375 0.579941
537 1 -0.028940625 -0.00125 -0.002953125 0.557531