ITEM: TIMESTEP
0
ITEM: NUMBER OF ATOMS
9240
ITEM: BOX BOUNDS ss ss ss
-3.7007399999999996e-02 3.7007399999999996e-02
-2.0002499999999999e-03 2.5000000000000004e-07
-3.7007399999999996e-02 3.7007399999999996e-02
ITEM: ATOMS id type x y z c_1
0 1 -0.037209375 -0.00261666666667 -0.000590625 0.504452
1 1 -0.037209375 -0.00125 -0.000590625 0.504452
2 1 -0.037209375 0.000116666666667 -0.000590625 0.504452
3 1 -0.036028125 -0.00261666666667 -0.007678125 0.50765
4 1 -0.036028125 -0.00261666666667 -0.006496875 0.508193
5 1 -0.036028125 -0.00261666666667 -0.005315625 0.507426
6 1 -0.036028125 -0.00261666666667 -0.004134375 0.508496
7 1 -0.036028125 -0.00261666666667 -0.002953125 0.507216
8 1 -0.036028125 -0.00261666666667 -0.001771875 0.508624
9 1 -0.036028125 -0.00261666666667 -0.000590625 0.507156
10 1 -0.036028125 -0.00261666666667 0.000590625 0.50884
11 1 -0.036028125 -0.00261666666667 0.001771875 0.507167
12 1 -0.036028125 -0.00261666666667 0.002953125 0.508837
13 1 -0.036028125 -0.00261666666667 0.004134375 0.507042
14 1 -0.036028125 -0.00261666666667 0.005315625 0.509023
15 1 -0.036028125 -0.00261666666667 0.006496875 0.507438
16 1 -0.036028125 -0.00261666666667 0.007678125 0.509033
17 1 -0.036028125 -0.00125 -0.007678125 0.50765
18 1 -0.036028125 -0.00125 -0.006496875 0.508193
19 1 -0.036028125 -0.00125 -0.005315625 0.507426
20 1 -0.036028125 -0.00125 -0.004134375 0.508496
21 1 -0.036028125 -0.00125 -0.002953125 0.507216
22 1 -0.036028125 -0.00125 -0.001771875 0.508624
23 1 -0.036028125 -0.00125 -0.000590625 0.507156
24 1 -0.036028125 -0.00125 0.000590625 0.50884
25 1 -0.036028125 -0.00125 0.001771875 0.507167
26 1 -0.036028125 -0.00125 0.002953125 0.508837
27 1 -0.036028125 -0.00125 0.004134375 0.507042
28 1 -0.036028125 -0.00125 0.005315625 0.509023
29 1 -0.036028125 -0.00125 0.006496875 0.507438
30 1 -0.036028125 -0.00125 0.007678125 0.509033
31 1 -0.036028125 0.000116666666667 -0.007678125 0.50765
32 1 -0.036028125 0.000116666666667 -0.006496875 0.508193
33 1 -0.036028125 0.000116666666667 -0.005315625 0.507426
34 1 -0.036028125 0.000116666666667 -0.004134375 0.508496
35 1 -0.036028125 0.000116666666667 -0.002953125 0.507216
36 1 -0.036028125 0.000116666666667 -0.001771875 0.508624
37 1 -0.036028125 0.000116666666667 -0.000590625 0.507156
38 1 -0.036028125 0.000116666666667 0.000590625 0.50884
39 1 -0.036028125 0.000116666666667 0.001771875 0.507167
40 1 -0.036028125 0.000116666666667 0.002953125 0.508837
41 1 -0.036028125 0.000116666666667 0.004134375 0.507042
42 1 -0.036028125 0.000116666666667 0.005315625 0.509023
43 1 -0.036028125 0.000116666666667 0.006496875 0.507438
44 1 -0.036028125 0.000116666666667 0.007678125 0.509033
45 1 -0.034846875 -0.00261666666667 -0.011221875 0.495574
46 1 -0.034846875 -0.00261666666667 -0.010040625 0.513232
47 1 -0.034846875 -0.00261666666667 -0.008859375 0.495635
48 1 -0.034846875 -0.00261666666667 -0.007678125 0.51265
49 1 -0.034846875 -0.00261666666667 -0.006496875 0.495489
50 1 -0.034846875 -0.00261666666667 -0.005315625 0.512038
51 1 -0.034846875 -0.00261666666667 -0.004134375 0.495988
52 1 -0.034846875 -0.00261666666667 -0.002953125 0.51207
53 1 -0.034846875 -0.00261666666667 -0.001771875 0.495959
54 1 -0.034846875 -0.00261666666667 -0.000590625 0.512848
55 1 -0.034846875 -0.00261666666667 0.000590625 0.495945
56 1 -0.034846875 -0.00261666666667 0.001771875 0.513398
57 1 -0.034846875 -0.00261666666667 0.002953125 0.495774
58 1 -0.034846875 -0.00261666666667 0.004134375 0.514371
59 1 -0.034846875 -0.00261666666667 0.005315625 0.49578
60 1 -0.034846875 -0.00261666666667 0.006496875 0.515336
61 1 -0.034846875 -0.00261666666667 0.007678125 0.49587
62 1 -0.034846875 -0.00261666666667 0.008859375 0.516528
63 1 -0.034846875 -0.00261666666667 0.010040625 0.495774
64 1 -0.034846875 -0.00261666666667 0.011221875 0.517622
65 1 -0.034846875 -0.00125 -0.011221875 0.495574
66 1 -0.034846875 -0.00125 -0.010040625 0.513232
67 1 -0.034846875 -0.00125 -0.008859375 0.495635
68 1 -0.034846875 -0.00125 -0.007678125 0.51265
69 1 -0.034846875 -0.00125 -0.006496875 0.495489
70 1 -0.034846875 -0.00125 -0.005315625 0.512038
71 1 -0.034846875 -0.00125 -0.004134375 0.495988
72 1 -0.034846875 -0.00125 -0.002953125 0.51207
73 1 -0.034846875 -0.00125 -0.001771875 0.495959
74 1 -0.034846875 -0.00125 -0.000590625 0.512848
75 1 -0.034846875 -0.00125 0.000590625 0.495945
76 1 -0.034846875 -0.00125 0.001771875 0.513398
77 1 -0.034846875 -0.00125 0.002953125 0.495774
78 1 -0.034846875 -0.00125 0.004134375 0.514371
79 1 -0.034846875 -0.00125 0.005315625 0.49578
80 1 -0.034846875 -0.00125 0.006496875 0.515336
81 1 -0.034846875 -0.00125 0.007678125 0.49587
82 1 -0.034846875 -0.00125 0.008859375 0.516528
83 1 -0.034846875 -0.00125 0.010040625 0.495774
84 1 -0.034846875 -0.00125 0.011221875 0.517622
85 1 -0.034846875 0.000116666666667 -0.011221875 0.495574
86 1 -0.034846875 0.000116666666667 -0.010040625 0.513232
87 1 -0.034846875 0.000116666666667 -0.008859375 0.495635
88 1 -0.034846875 0.000116666666667 -0.007678125 0.51265
89 1 -0.034846875 0.000116666666667 -0.006496875 0.495489
90 1 -0.034846875 0.000116666666667 -0.005315625 0.512038
91 1 -0.034846875 0.000116666666667 -0.004134375 0.495988
92 1 -0.034846875 0.000116666666667 -0.002953125 0.51207
93 1 -0.034846875 0.000116666666667 -0.001771875 0.495959
94 1 -0.034846875 0.000116666666667 -0.000590625 0.512848
95 1 -0.034846875 0.000116666666667 0.000590625 0.495945
96 1 -0.034846875 0.000116666666667 0.001771875 0.513398
97 1 -0.034846875 0.000116666666667 0.002953125 0.495774
98 1 -0.034846875 0.000116666666667 0.004134375 0.514371
99 1 -0.034846875 0.000116666666667 0.005315625 0.49578
100 1 -0.034846875 0.000116666666667 0.006496875 0.515336
101 1 -0.034846875 0.000116666666667 0.007678125 0.49587
102 1 -0.034846875 0.000116666666667 0.008859375 0.516528
103 1 -0.034846875 0.000116666666667 0.010040625 0.495774
104 1 -0.034846875 0.000116666666667 0.011221875 0.517622
105 1 -0.033665625 -0.00261666666667 -0.013584375 0.511188
106 1 -0.033665625 -0.00261666666667 -0.012403125 0.506904
107 1 -0.033665625 -0.00261666666667 -0.011221875 0.511209
108 1 -0.033665625 -0.00261666666667 -0.010040625 0.507162
109 1 -0.033665625 -0.00261666666667 -0.008859375 0.511325
110 1 -0.033665625 -0.00261666666667 -0.007678125 0.507093
111 1 -0.033665625 -0.00261666666667 -0.006496875 0.511745
112 1 -0.033665625 -0.00261666666667 -0.005315625 0.506859
113 1 -0.033665625 -0.00261666666667 -0.004134375 0.512119
114 1 -0.033665625 -0.00261666666667 -0.002953125 0.506506
115 1 -0.033665625 -0.00261666666667 -0.001771875 0.51208
116 1 -0.033665625 -0.00261666666667 -0.000590625 0.506293
117 1 -0.033665625 -0.00261666666667 0.000590625 0.512196
118 1 -0.033665625 -0.00261666666667 0.001771875 0.506067
119 1 -0.033665625 -0.00261666666667 0.002953125 0.511994
120 1 -0.033665625 -0.00261666666667 0.004134375 0.505747
121 1 -0.033665625 -0.00261666666667 0.005315625 0.512244
122 1 -0.033665625 -0.00261666666667 0.006496875 0.505907
123 1 -0.033665625 -0.00261666666667 0.007678125 0.512504
124 1 -0.033665625 -0.00261666666667 0.008859375 0.506132
125 1 -0.033665625 -0.00261666666667 0.010040625 0.51283
126 1 -0.033665625 -0.00261666666667 0.011221875 0.506368
127 1 -0.033665625 -0.00261666666667 0.012403125 0.513087
128 1 -0.033665625 -0.00261666666667 0.013584375 0.506582
129 1 -0.033665625 -0.00125 -0.013584375 0.511188
130 1 -0.033665625 -0.00125 -0.012403125 0.506904
131 1 -0.033665625 -0.00125 -0.011221875 0.511209
132 1 -0.033665625 -0.00125 -0.010040625 0.507162
133 1 -0.033665625 -0.00125 -0.008859375 0.511325
134 1 -0.033665625 -0.00125 -0.007678125 0.507093
135 1 -0.033665625 -0.00125 -0.006496875 0.511745
136 1 -0.033665625 -0.00125 -0.005315625 0.506859
137 1 -0.033665625 -0.00125 -0.004134375 0.512119
138 1 -0.033665625 -0.00125 -0.002953125 0.506506
139 1 -0.033665625 -0.00125 -0.001771875 0.51208
140 1 -0.033665625 -0.00125 -0.000590625 0.506293
141 1 -0.033665625 -0.00125 0.000590625 0.512196
142 1 -0.033665625 -0.00125 0.001771875 0.506067
143 1 -0.033665625 -0.00125 0.002953125 0.511994
144 1 -0.033665625 -0.00125 0.004134375 0.505747
145 1 -0.033665625 -0.00125 0.005315625 0.512244
146 1 -0.033665625 -0.00125 0.006496875 0.505907
147 1 -0.033665625 -0.00125 0.007678125 0.512504
148 1 -0.033665625 -0.00125 0.008859375 0.506132
149 1 -0.033665625 -0.00125 0.010040625 0.51283
150 1 -0.033665625 -0.00125 0.011221875 0.506368
151 1 -0.033665625 -0.00125 0.012403125 0.513087
152 1 -0.033665625 -0.00125 0.013584375 0.506582
153 1 -0.033665625 0.000116666666667 -0.013584375 0.511188
154 1 -0.033665625 0.000116666666667 -0.012403125 0.506904
155 1 -0.033665625 0.000116666666667 -0.011221875 0.511209
156 1 -0.033665625 0.000116666666667 -0.010040625 0.507162
157 1 -0.033665625 0.000116666666667 -0.008859375 0.511325
158 1 -0.033665625 0.000116666666667 -0.007678125 0.507093
159 1 -0.033665625 0.000116666666667 -0.006496875 0.511745
160 1 -0.033665625 0.000116666666667 -0.005315625 0.506859
161 1 -0.033665625 0.000116666666667 -0.004134375 0.512119
162 1 -0.033665625 0.000116666666667 -0.002953125 0.506506
163 1 -0.033665625 0.000116666666667 -0.001771875 0.51208
164 1 -0.033665625 0.000116666666667 -0.000590625 0.506293
165 1 -0.033665625 0.000116666666667 0.000590625 0.512196
166 1 -0.033665625 0.000116666666667 0.001771875 0.506067
167 1 -0.033665625 0.000116666666667 0.002953125 0.511994
168 1 -0.033665625 0.000116666666667 0.004134375 0.505747
169 1 -0.033665625 0.000116666666667 0.005315625 0.512244
170 1 -0.033665625 0.000116666666667 0.006496875 0.505907
171 1 -0.033665625 0.000116666666667 0.007678125 0.512504
172 1 -0.033665625 0.000116666666667 0.008859375 0.506132
173 1 -0.033665625 0.000116666666667 0.010040625 0.51283
174 1 -0.033665625 0.000116666666667 0.011221875 0.506368
175 1 -0.033665625 0.000116666666667 0.012403125 0.513087
176 1 -0.033665625 0.000116666666667 0.013584375 0.506582
177 1 -0.032484375 -0.00261666666667 -0.018309375 0.496394
178 1 -0.032484375 -0.00261666666667 -0.017128125 0.51488
179 1 -0.032484375 -0.00261666666667 -0.015946875 0.496359
180 1 -0.032484375 -0.00261666666667 -0.014765625 0.514953
181 1 -0.032484375 -0.00261666666667 -0.013584375 0.496051
182 1 -0.032484375 -0.00261666666667 -0.012403125 0.514763
183 1 -0.032484375 -0.00261666666667 -0.011221875 0.495895
184 1 -0.032484375 -0.00261666666667 -0.010040625 0.514066
185 1 -0.032484375 -0.00261666666667 -0.008859375 0.495759
186 1 -0.032484375 -0.00261666666667 -0.007678125 0.513265
187 1 -0.032484375 -0.00261666666667 -0.006496875 0.495636
188 1 -0.032484375 -0.00261666666667 -0.005315625 0.512352
189 1 -0.032484375 -0.00261666666667 -0.004134375 0.496323
190 1 -0.032484375 -0.00261666666667 -0.002953125 0.512172
191 1 -0.032484375 -0.00261666666667 -0.001771875 0.496574
192 1 -0.032484375 -0.00261666666667 -0.000590625 0.512633
193 1 -0.032484375 -0.00261666666667 0.000590625 0.496839
194 1 -0.032484375 -0.00261666666667 0.001771875 0.513054
195 1 -0.032484375 -0.00261666666667 0.002953125 0.496744
196 1 -0.032484375 -0.00261666666667 0.004134375 0.513802
197 1 -0.032484375 -0.00261666666667 0.005315625 0.496715
198 1 -0.032484375 -0.00261666666667 0.006496875 0.514788
199 1 -0.032484375 -0.00261666666667 0.007678125 0.496836
200 1 -0.032484375 -0.00261666666667 0.008859375 0.516291
201 1 -0.032484375 -0.00261666666667 0.010040625 0.497146
202 1 -0.032484375 -0.00261666666667 0.011221875 0.51778
203 1 -0.032484375 -0.00261666666667 0.012403125 0.496975
204 1 -0.032484375 -0.00261666666667 0.013584375 0.51877
205 1 -0.032484375 -0.00261666666667 0.014765625 0.496821
206 1 -0.032484375 -0.00261666666667 0.015946875 0.519282
207 1 -0.032484375 -0.00261666666667 0.017128125 0.497014
208 1 -0.032484375 -0.00261666666667 0.018309375 0.519079
209 1 -0.032484375 -0.00125 -0.018309375 0.496394
210 1 -0.032484375 -0.00125 -0.017128125 0.51488
211 1 -0.032484375 -0.00125 -0.015946875 0.496359
212 1 -0.032484375 -0.00125 -0.014765625 0.514953
213 1 -0.032484375 -0.00125 -0.013584375 0.496051
214 1 -0.032484375 -0.00125 -0.012403125 0.514763
215 1 -0.032484375 -0.00125 -0.011221875 0.495895
216 1 -0.032484375 -0.00125 -0.010040625 0.514066
217 1 -0.032484375 -0.00125 -0.008859375 0.495759
218 1 -0.032484375 -0.00125 -0.007678125 0.513265
219 1 -0.032484375 -0.00125 -0.006496875 0.495636
220 1 -0.032484375 -0.00125 -0.005315625 0.512352
221 1 -0.032484375 -0.00125 -0.004134375 0.496323
222 1 -0.032484375 -0.00125 -0.002953125 0.512172
223 1 -0.032484375 -0.00125 -0.001771875 0.496574
224 1 -0.032484375 -0.00125 -0.000590625 0.512633
225 1 -0.032484375 -0.00125 0.000590625 0.496839
226 1 -0.032484375 -0.00125 0.001771875 0.513054
227 1 -0.032484375 -0.00125 0.002953125 0.496744
228 1 -0.032484375 -0.00125 0.004134375 0.513802
229 1 -0.032484375 -0.00125 0.005315625 0.496715
230 1 -0.032484375 -0.00125 0.006496875 0.514788
231 1 -0.032484375 -0.00125 0.007678125 0.496836
232 1 -0.032484375 -0.00125 0.008859375 0.516291
233 1 -0.032484375 -0.00125 0.010040625 0.497146
234 1 -0.032484375 -0.00125 0.011221875 0.51778
235 1 -0.032484375 -0.00125 0.012403125 0.496975
236 1 -0.032484375 -0.00125 0.013584375 0.51877
237 1 -0.032484375 -0.00125 0.014765625 0.496821
238 1 -0.032484375 -0.00125 0.015946875 0.519282
239 1 -0.032484375 -0.00125 0.017128125 0.497014
240 1 -0.032484375 -0.00125 0.018309375 0.519079
241 1 -0.032484375 0.000116666666667 -0.018309375 0.496394
242 1 -0.032484375 0.000116666666667 -0.017128125 0.51488
243 1 -0.032484375 0.000116666666667 -0.015946875 0.496359
244 1 -0.032484375 0.000116666666667 -0.014765625 0.514953
245 1 -0.032484375 0.000116666666667 -0.013584375 0.496051
246 1 -0.032484375 0.000116666666667 -0.012403125 0.514763
247 1 -0.032484375 0.000116666666667 -0.011221875 0.495895
248 1 -0.032484375 0.000116666666667 -0.010040625 0.514066
249 1 -0.032484375 0.000116666666667 -0.008859375 0.495759
250 1 -0.032484375 0.000116666666667 -0.007678125 0.513265
251 1 -0.032484375 0.000116666666667 -0.006496875 0.495636
252 1 -0.032484375 0.000116666666667 -0.005315625 0.512352
253 1 -0.032484375 0.000116666666667 -0.004134375 0.496323
254 1 -0.032484375 0.000116666666667 -0.002953125 0.512172
255 1 -0.032484375 0.000116666666667 -0.001771875 0.496574
256 1 -0.032484375 0.000116666666667 -0.000590625 0.512633
257 1 -0.032484375 0.000116666666667 0.000590625 0.496839
258 1 -0.032484375 0.000116666666667 0.001771875 0.513054
259 1 -0.032484375 0.000116666666667 0.002953125 0.496744
260 1 -0.032484375 0.000116666666667 0.004134375 0.513802
261 1 -0.032484375 0.000116666666667 0.005315625 0.496715
262 1 -0.032484375 0.000116666666667 0.006496875 0.514788
263 1 -0.032484375 0.000116666666667 0.007678125 0.496836
264 1 -0.032484375 0.000116666666667 0.008859375 0.516291
265 1 -0.032484375 0.000116666666667 0.010040625 0.497146
266 1 -0.032484375 0.000116666666667 0.011221875 0.51778
267 1 -0.032484375 0.000116666666667 0.012403125 0.496975
268 1 -0.032484375 0.000116666666667 0.013584375 0.51877
269 1 -0.032484375 0.000116666666667 0.014765625 0.496821
270 1 -0.032484375 0.000116666666667 0.015946875 0.519282
271 1 -0.032484375 0.000116666666667 0.017128125 0.497014
272 1 -0.032484375 0.000116666666667 0.018309375 0.519079
273 1 -0.031303125 -0.00261666666667 -0.019490625 0.506541
274 1 -0.031303125 -0.00261666666667 -0.018309375 0.513699
275 1 -0.031303125 -0.00261666666667 -0.017128125 0.506695
276 1 -0.031303125 -0.00261666666667 -0.015946875 0.513416
277 1 -0.031303125 -0.00261666666667 -0.014765625 0.506887
278 1 -0.031303125 -0.00261666666667 -0.013584375 0.513031
279 1 -0.031303125 -0.00261666666667 -0.012403125 0.507186
280 1 -0.031303125 -0.00261666666667 -0.011221875 0.512836
281 1 -0.031303125 -0.00261666666667 -0.010040625 0.507382
282 1 -0.031303125 -0.00261666666667 -0.008859375 0.512765
283 1 -0.031303125 -0.00261666666667 -0.007678125 0.507414
284 1 -0.031303125 -0.00261666666667 -0.006496875 0.512976
285 1 -0.031303125 -0.00261666666667 -0.005315625 0.50729
286 1 -0.031303125 -0.00261666666667 -0.004134375 0.513201
287 1 -0.031303125 -0.00261666666667 -0.002953125 0.50702
288 1 -0.031303125 -0.00261666666667 -0.001771875 0.513056
289 1 -0.031303125 -0.00261666666667 -0.000590625 0.506782
290 1 -0.031303125 -0.00261666666667 0.000590625 0.513062
291 1 -0.031303125 -0.00261666666667 0.001771875 0.50628
292 1 -0.031303125 -0.00261666666667 0.002953125 0.51262
293 1 -0.031303125 -0.00261666666667 0.004134375 0.505858
294 1 -0.031303125 -0.00261666666667 0.005315625 0.512529
295 1 -0.031303125 -0.00261666666667 0.006496875 0.505779
296 1 -0.031303125 -0.00261666666667 0.007678125 0.512874
297 1 -0.031303125 -0.00261666666667 0.008859375 0.505803
298 1 -0.031303125 -0.00261666666667 0.010040625 0.513115
299 1 -0.031303125 -0.00261666666667 0.011221875 0.505941
300 1 -0.031303125 -0.00261666666667 0.012403125 0.513356
301 1 -0.031303125 -0.00261666666667 0.013584375 0.505974
302 1 -0.031303125 -0.00261666666667 0.014765625 0.513461
303 1 -0.031303125 -0.00261666666667 0.015946875 0.505935
304 1 -0.031303125 -0.00261666666667 0.017128125 0.513403
305 1 -0.031303125 -0.00261666666667 0.018309375 0.505874
306 1 -0.031303125 -0.00261666666667 0.019490625 0.513267
307 1 -0.031303125 -0.00125 -0.019490625 0.506541
308 1 -0.031303125 -0.00125 -0.018309375 0.513699
309 1 -0.031303125 -0.00125 -0.017128125 0.506695
310 1 -0.031303125 -0.00125 -0.015946875 0.513416
311 1 -0.031303125 -0.00125 -0.014765625 0.506887
312 1 -0.031303125 -0.00125 -0.013584375 0.513031
313 1 -0.031303125 -0.00125 -0.012403125 0.507186
314 1 -0.031303125 -0.00125 -0.011221875 0.512836
315 1 -0.031303125 -0.00125 -0.010040625 0.507382
316 1 -0.031303125 -0.00125 -0.008859375 0.512765
317 1 -0.031303125 -0.00125 -0.007678125 0.507414
318 1 -0.031303125 -0.00125 -0.006496875 0.512976
319 1 -0.031303125 -0.00125 -0.005315625 0.50729
320 1 -0.031303125 -0.00125 -0.004134375 0.513201
321 1 -0.031303125 -0.00125 -0.002953125 0.50702
322 1 -0.031303125 -0.00125 -0.001771875 0.513056
323 1 -0.031303125 -0.00125 -0.000590625 0.506782
324 1 -0.031303125 -0.00125 0.000590625 0.513062
325 1 -0.031303125 -0.00125 0.001771875 0.50628
326 1 -0.031303125 -0.00125 0.002953125 0.51262
327 1 -0.031303125 -0.00125 0.004134375 0.505858
328 1 -0.031303125 -0.00125 0.005315625 0.512529
329 1 -0.031303125 -0.00125 0.006496875 0.505779
330 1 -0.031303125 -0.00125 0.007678125 0.512874
331 1 -0.031303125 -0.00125 0.008859375 0.505803
332 1 -0.031303125 -0.00125 0.010040625 0.513115
333 1 -0.031303125 -0.00125 0.011221875 0.505941
334 1 -0.031303125 -0.00125 0.012403125 0.513356
335 1 -0.031303125 -0.00125 0.013584375 0.505974
336 1 -0.031303125 -0.00125 0.014765625 0.513461
337 1 -0.031303125 -0.00125 0.015946875 0.505935
338 1 -0.031303125 -0.00125 0.017128125 0.513403
339 1 -0.031303125 -0.00125 0.018309375 0.505874
340 1 -0.031303125 -0.00125 0.019490625 0.513267
341 1 -0.031303125 0.000116666666667 -0.019490625 0.506541
342 1 -0.031303125 0.000116666666667 -0.018309375 0.513699
343 1 -0.031303125 0.000116666666667 -0.017128125 0.506695
344 1 -0.031303125 0.000116666666667 -0.015946875 0.513416
345 1 -0.031303125 0.000116666666667 -0.014765625 0.506887
346 1 -0.031303125 0.000116666666667 -0.013584375 0.513031
347 1 -0.031303125 0.000116666666667 -0.012403125 0.507186
348 1 -0.031303125 0.000116666666667 -0.011221875 0.512836
349 1 -0.031303125 0.000116666666667 -0.010040625 0.507382
350 1 -0.031303125 0.000116666666667 -0.008859375 0.512765
351 1 -0.031303125 0.000116666666667 -0.007678125 0.507414
352 1 -0.031303125 0.000116666666667 -0.006496875 0.512976
353 1 -0.031303125 0.000116666666667 -0.005315625 0.50729
354 1 -0.031303125 0.000116666666667 -0.004134375 0.513201
355 1 -0.031303125 0.000116666666667 -0.002953125 0.50702
356 1 -0.031303125 0.000116666666667 -0.001771875 0.513056
357 1 -0.031303125 0.000116666666667 -0.000590625 0.506782
358 1 -0.031303125 0.000116666666667 0.000590625 0.513062
359 1 -0.031303125 0.000116666666667 0.001771875 0.50628
360 1 -0.031303125 0.000116666666667 0.002953125 0.51262
361 1 -0.031303125 0.000116666666667 0.004134375 0.505858
362 1 -0.031303125 0.000116666666667 0.005315625 0.512529
363 1 -0.031303125 0.000116666666667 0.006496875 0.505779
364 1 -0.031303125 0.000116666666667 0.007678125 0.512874
365 1 -0.031303125 0.000116666666667 0.008859375 0.505803
366 1 -0.031303125 0.000116666666667 0.010040625 0.513115
367 1 -0.031303125 0.000116666666667 0.011221875 0.505941
368 1 -0.031303125 0.000116666666667 0.012403125 0.513356
369 1 -0.031303125 0.000116666666667 0.013584375 0.505974
370 1 -0.031303125 0.000116666666667 0.014765625 0.513461
371 1 -0.031303125 0.000116666666667 0.015946875 0.505935
372 1 -0.031303125 0.000116666666667 0.017128125 0.513403
373 1 -0.031303125 0.000116666666667 0.018309375 0.505874
374 1 -0.031303125 0.000116666666667 0.019490625 0.513267
375 1 -0.030121875 -0.00261666666667 -0.020671875 0.496605
376 1 -0.030121875 -0.00261666666667 -0.019490625 0.515277
377 1 -0.030121875 -0.00261666666667 -0.018309375 0.496024
378 1 -0.030121875 -0.00261666666667 -0.017128125 0.515258
379 1 -0.030121875 -0.00261666666667 -0.015946875 0.495774
380 1 -0.030121875 -0.00261666666667 -0.014765625 0.515312
381 1 -0.030121875 -0.00261666666667 -0.013584375 0.49551
382 1 -0.030121875 -0.00261666666667 -0.012403125 0.515123
383 1 -0.030121875 -0.00261666666667 -0.011221875 0.495469
384 1 -0.030121875 -0.00261666666667 -0.010040625 0.514493
385 1 -0.030121875 -0.00261666666667 -0.008859375 0.495525
386 1 -0.030121875 -0.00261666666667 -0.007678125 0.513695
387 1 -0.030121875 -0.00261666666667 -0.006496875 0.495709
388 1 -0.030121875 -0.00261666666667 -0.005315625 0.512744
389 1 -0.030121875 -0.00261666666667 -0.004134375 0.496464
390 1 -0.030121875 -0.00261666666667 -0.002953125 0.512439
391 1 -0.030121875 -0.00261666666667 -0.001771875 0.496914
392 1 -0.030121875 -0.00261666666667 -0.000590625 0.512861
393 1 -0.030121875 -0.00261666666667 0.000590625 0.497271
394 1 -0.030121875 -0.00261666666667 0.001771875 0.513172
395 1 -0.030121875 -0.00261666666667 0.002953125 0.497225
396 1 -0.030121875 -0.00261666666667 0.004134375 0.513869
397 1 -0.030121875 -0.00261666666667 0.005315625 0.497252
398 1 -0.030121875 -0.00261666666667 0.006496875 0.51498
399 1 -0.030121875 -0.00261666666667 0.007678125 0.497303
400 1 -0.030121875 -0.00261666666667 0.008859375 0.516349
401 1 -0.030121875 -0.00261666666667 0.010040625 0.497698
402 1 -0.030121875 -0.00261666666667 0.011221875 0.517547
403 1 -0.030121875 -0.00261666666667 0.012403125 0.497813
404 1 -0.030121875 -0.00261666666667 0.013584375 0.518504
405 1 -0.030121875 -0.00261666666667 0.014765625 0.497459
406 1 -0.030121875 -0.00261666666667 0.015946875 0.518715
407 1 -0.030121875 -0.00261666666667 0.017128125 0.497283
408 1 -0.030121875 -0.00261666666667 0.018309375 0.518475
409 1 -0.030121875 -0.00261666666667 0.019490625 0.497067
410 1 -0.030121875 -0.00261666666667 0.020671875 0.518133
411 1 -0.030121875 -0.00125 -0.020671875 0.496605
412 1 -0.030121875 -0.00125 -0.019490625 0.515277
413 1 -0.030121875 -0.00125 -0.018309375 0.496024
414 1 -0.030121875 -0.00125 -0.017128125 0.515258
415 1 -0.030121875 -0.00125 -0.015946875 0.495774
416 1 -0.030121875 -0.00125 -0.014765625 0.515312
417 1 -0.030121875 -0.00125 -0.013584375 0.49551
418 1 -0.030121875 -0.00125 -0.012403125 0.515123
419 1 -0.030121875 -0.00125 -0.011221875 0.495469
420 1 -0.030121875 -0.00125 -0.010040625 0.514493
421 1 -0.030121875 -0.00125 -0.008859375 0.495525
422 1 -0.030121875 -0.00125 -0.007678125 0.513695
423 1 -0.030121875 -0.00125 -0.006496875 0.495709
424 1 -0.030121875 -0.00125 -0.005315625 0.512744
425 1 -0.030121875 -0.00125 -0.004134375 0.496464
426 1 -0.030121875 -0.00125 -0.002953125 0.512439
427 1 -0.030121875 -0.00125 -0.001771875 0.496914
428 1 -0.030121875 -0.00125 -0.000590625 0.512861
429 1 -0.030121875 -0.00125 0.000590625 0.497271
430 1 -0.030121875 -0.00125 0.001771875 0.513172
431 1 -0.030121875 -0.00125 0.002953125 0.497225
432 1 -0.030121875 -0.00125 0.004134375 0.513869
433 1 -0.030121875 -0.00125 0.005315625 0.497252
434 1 -0.030121875 -0.00125 0.006496875 0.51498
435 1 -0.030121875 -0.00125 0.007678125 0.497303
436 1 -0.030121875 -0.00125 0.008859375 0.516349
437 1 -0.030121875 -0.00125 0.010040625 0.497698
438 1 -0.030121875 -0.00125 0.011221875 0.517547
439 1 -0.030121875 -0.00125 0.012403125 0.497813
440 1 -0.030121875 -0.00125 0.013584375 0.518504
441 1 -0.030121875 -0.00125 0.014765625 0.497459
442 1 -0.030121875 -0.00125 0.015946875 0.518715
443 1 -0.030121875 -0.00125 0.017128125 0.497283
444 1 -0.030121875 -0.00125 0.018309375 0.518475
445 1 -0.030121875 -0.00125 0.019490625 0.497067
446 1 -0.030121875 -0.00125 0.020671875 0.518133
447 1 -0.030121875 0.000116666666667 -0.020671875 0.496605
448 1 -0.030121875 0.000116666666667 -0.019490625 0.515277
449 1 -0.030121875 0.000116666666667 -0.018309375 0.496024
450 1 -0.030121875 0.000116666666667 -0.017128125 0.515258
451 1 -0.030121875 0.000116666666667 -0.015946875 0.495774
452 1 -0.030121875 0.000116666666667 -0.014765625 0.515312
453 1 -0.030121875 0.000116666666667 -0.013584375 0.49551
454 1 -0.030121875 0.000116666666667 -0.012403125 0.515123
455 1 -0.030121875 0.000116666666667 -0.011221875 0.495469
456 1 -0.030121875 0.000116666666667 -0.010040625 0.514493
457 1 -0.030121875 0.000116666666667 -0.008859375 0.495525
458 1 -0.030121875 0.000116666666667 -0.007678125 0.513695
459 1 -0.030121875 0.000116666666667 -0.006496875 0.495709
460 1 -0.030121875 0.000116666666667 -0.005315625 0.512744
461 1 -0.030121875 0.000116666666667 -0.004134375 0.496464
462 1 -0.030121875 0.000116666666667 -0.002953125 0.512439
463 1 -0.030121875 0.000116666666667 -0.001771875 0.496914
464 1 -0.030121875 0.000116666666667 -0.000590625 0.512861
465 1 -0.030121875 0.000116666666667 0.000590625 0.497271
466 1 -0.030121875 0.000116666666667 0.001771875 0.513172
467 1 -0.030121875 0.000116666666667 0.002953125 0.497225
468 1 -0.030121875 0.000116666666667 0.004134375 0.513869
469 1 -0.030121875 0.000116666666667 0.005315625 0.497252
470 1 -0.030121875 0.000116666666667 0.006496875 0.51498
471 1 -0.030121875 0.000116666666667 0.007678125 0.497303
472 1 -0.030121875 0.000116666666667 0.008859375 0.516349
473 1 -0.030121875 0.000116666666667 0.010040625 0.497698
474 1 -0.030121875 0.000116666666667 0.011221875 0.517547
475 1 -0.030121875 0.000116666666667 0.012403125 0.497813
476 1 -0.030121875 0.000116666666667 0.013584375 0.518504
477 1 -0.030121875 0.000116666666667 0.014765625 0.497459
478 1 -0.030121875 0.000116666666667 0.015946875 0.518715
479 1 -0.030121875 0.000116666666667 0.017128125 0.497283
480 1 -0.030121875 0.000116666666667 0.018309375 0.518475
481 1 -0.030121875 0.000116666666667 0.019490625 0.497067
482 1 -0.030121875 0.000116666666667 0.020671875 0.518133
483 1 -0.028940625 -0.00261666666667 -0.021853125 0.507287
484 1 -0.028940625 -0.00261666666667 -0.020671875 0.514978
485 1 -0.028940625 -0.00261666666667 -0.019490625 0.507064
486 1 -0.028940625 -0.00261666666667 -0.018309375 0.514924
487 1 -0.028940625 -0.00261666666667 -0.017128125 0.507174
488 1 -0.028940625 -0.00261666666667 -0.015946875 0.514914
489 1 -0.028940625 -0.00261666666667 -0.014765625 0.50722
490 1 -0.028940625 -0.00261666666667 -0.013584375 0.51455
491 1 -0.028940625 -0.00261666666667 -0.012403125 0.50732
492 1 -0.028940625 -0.00261666666667 -0.011221875 0.51416
493 1 -0.028940625 -0.00261666666667 -0.010040625 0.507329
494 1 -0.028940625 -0.00261666666667 -0.008859375 0.51382
495 1 -0.028940625 -0.00261666666667 -0.007678125 0.507264
496 1 -0.028940625 -0.00261666666667 -0.006496875 0.513766
497 1 -0.028940625 -0.00261666666667 -0.005315625 0.507233
498 1 -0.028940625 -0.00261666666667 -0.004134375 0.513852
499 1 -0.028940625 -0.00261666666667 -0.002953125 0.507092
500 1 -0.028940625 -0.00261666666667 -0.001771875 0.513443
501 1 -0.028940625 -0.00261666666667 -0.000590625 0.50684
502 1 -0.028940625 -0.00261666666667 0.000590625 0.513382
503 1 -0.028940625 -0.00261666666667 0.001771875 0.506187
504 1 -0.028940625 -0.00261666666667 0.002953125 0.512975
505 1 -0.028940625 -0.00261666666667 0.004134375 0.505753
506 1 -0.028940625 -0.00261666666667 0.005315625 0.512709
507 1 -0.028940625 -0.00261666666667 0.006496875 0.505546
508 1 -0.028940625 -0.00261666666667 0.007678125 0.51296
509 1 -0.028940625 -0.00261666666667 0.008859375 0.505483
510 1 -0.028940625 -0.00261666666667 0.010040625 0.513108
511 1 -0.028940625 -0.00261666666667 0.011221875 0.505624
512 1 -0.028940625 -0.00261666666667 0.012403125 0.513175
513 1 -0.028940625 -0.00261666666667 0.013584375 0.505654
514 1 -0.028940625 -0.00261666666667 0.014765625 0.513259
515 1 -0.028940625 -0.00261666666667 0.015946875 0.505815
516 1 -0.028940625 -0.00261666666667 0.017128125 0.513241
517 1 -0.028940625 -0.00261666666667 0.018309375 0.505875
518 1 -0.028940625 -0.00261666666667 0.019490625 0.51304
519 1 -0.028940625 -0.00261666666667 0.020671875 0.505766
520 1 -0.028940625 -0.00261666666667 0.021853125 0.512853
521 1 -0.028940625 -0.00125 -0.021853125 0.507287
522 1 -0.028940625 -0.00125 -0.020671875 0.514978
523 1 -0.028940625 -0.00125 -0.019490625 0.507064
524 1 -0.028940625 -0.00125 -0.018309375 0.514924
525 1 -0.028940625 -0.00125 -0.017128125 0.507174
526 1 -0.028940625 -0.00125 -0.015946875 0.514914
527 1 -0.028940625 -0.00125 -0.014765625 0.50722
528 1 -0.028940625 -0.00125 -0.013584375 0.51455
529 1 -0.028940625 -0.00125 -0.012403125 0.50732
530 1 -0.028940625 -0.00125 -0.011221875 0.51416
531 1 -0.028940625 -0.00125 -0.010040625 0.507329
532 1 -0.028940625 -0.00125 -0.008859375 0.51382
533 1 -0.028940625 -0.00125 -0.007678125 0.507264
534 1 -0.028940625 -0.00125 -0.006496875 0.513766
535 1 -0.028940625 -0.00125 -0.005315625 0.507233
536 1 -0.028940625 -0.00125 -0.004134375 0.513852
537 1 -0.028940625 -0.00125 -0.002953125 0.507092
538 1 -0.028940625 -0.00125 -0.001771875 0.513443