ITEM: TIMESTEP
0
ITEM: NUMBER OF ATOMS
9240
ITEM: BOX BOUNDS ss ss ss
-3.7007399999999996e-02 3.7007399999999996e-02
-2.0002499999999999e-03 2.5000000000000004e-07
-3.7007399999999996e-02 3.7007399999999996e-02
ITEM: ATOMS id type x y z c_1
0 1 -0.037209375 -0.00261666666667 -0.000590625 0.275424
1 1 -0.037209375 -0.00125 -0.000590625 0.275424
2 1 -0.037209375 0.000116666666667 -0.000590625 0.275424
3 1 -0.036028125 -0.00261666666667 -0.007678125 0.209616
4 1 -0.036028125 -0.00261666666667 -0.006496875 0.120418
5 1 -0.036028125 -0.00261666666667 -0.005315625 0.218283
6 1 -0.036028125 -0.00261666666667 -0.004134375 0.129106
7 1 -0.036028125 -0.00261666666667 -0.002953125 0.225884
8 1 -0.036028125 -0.00261666666667 -0.001771875 0.138006
9 1 -0.036028125 -0.00261666666667 -0.000590625 0.234682
10 1 -0.036028125 -0.00261666666667 0.000590625 0.144869
11 1 -0.036028125 -0.00261666666667 0.001771875 0.239582
12 1 -0.036028125 -0.00261666666667 0.002953125 0.146593
13 1 -0.036028125 -0.00261666666667 0.004134375 0.235904
14 1 -0.036028125 -0.00261666666667 0.005315625 0.137399
15 1 -0.036028125 -0.00261666666667 0.006496875 0.219254
16 1 -0.036028125 -0.00261666666667 0.007678125 0.120484
17 1 -0.036028125 -0.00125 -0.007678125 0.209616
18 1 -0.036028125 -0.00125 -0.006496875 0.120418
19 1 -0.036028125 -0.00125 -0.005315625 0.218283
20 1 -0.036028125 -0.00125 -0.004134375 0.129106
21 1 -0.036028125 -0.00125 -0.002953125 0.225884
22 1 -0.036028125 -0.00125 -0.001771875 0.138006
23 1 -0.036028125 -0.00125 -0.000590625 0.234682
24 1 -0.036028125 -0.00125 0.000590625 0.144869
25 1 -0.036028125 -0.00125 0.001771875 0.239582
26 1 -0.036028125 -0.00125 0.002953125 0.146593
27 1 -0.036028125 -0.00125 0.004134375 0.235904
28 1 -0.036028125 -0.00125 0.005315625 0.137399
29 1 -0.036028125 -0.00125 0.006496875 0.219254
30 1 -0.036028125 -0.00125 0.007678125 0.120484
31 1 -0.036028125 0.000116666666667 -0.007678125 0.209616
32 1 -0.036028125 0.000116666666667 -0.006496875 0.120418
33 1 -0.036028125 0.000116666666667 -0.005315625 0.218283
34 1 -0.036028125 0.000116666666667 -0.004134375 0.129106
35 1 -0.036028125 0.000116666666667 -0.002953125 0.225884
36 1 -0.036028125 0.000116666666667 -0.001771875 0.138006
37 1 -0.036028125 0.000116666666667 -0.000590625 0.234682
38 1 -0.036028125 0.000116666666667 0.000590625 0.144869
39 1 -0.036028125 0.000116666666667 0.001771875 0.239582
40 1 -0.036028125 0.000116666666667 0.002953125 0.146593
41 1 -0.036028125 0.000116666666667 0.004134375 0.235904
42 1 -0.036028125 0.000116666666667 0.005315625 0.137399
43 1 -0.036028125 0.000116666666667 0.006496875 0.219254
44 1 -0.036028125 0.000116666666667 0.007678125 0.120484
45 1 -0.034846875 -0.00261666666667 -0.011221875 0.102038
46 1 -0.034846875 -0.00261666666667 -0.010040625 0.150442
47 1 -0.034846875 -0.00261666666667 -0.008859375 0.119274
48 1 -0.034846875 -0.00261666666667 -0.007678125 0.16302
49 1 -0.034846875 -0.00261666666667 -0.006496875 0.132486
50 1 -0.034846875 -0.00261666666667 -0.005315625 0.171578
51 1 -0.034846875 -0.00261666666667 -0.004134375 0.145017
52 1 -0.034846875 -0.00261666666667 -0.002953125 0.179594
53 1 -0.034846875 -0.00261666666667 -0.001771875 0.158207
54 1 -0.034846875 -0.00261666666667 -0.000590625 0.187263
55 1 -0.034846875 -0.00261666666667 0.000590625 0.1696
56 1 -0.034846875 -0.00261666666667 0.001771875 0.191493
57 1 -0.034846875 -0.00261666666667 0.002953125 0.173548
58 1 -0.034846875 -0.00261666666667 0.004134375 0.183686
59 1 -0.034846875 -0.00261666666667 0.005315625 0.165446
60 1 -0.034846875 -0.00261666666667 0.006496875 0.164724
61 1 -0.034846875 -0.00261666666667 0.007678125 0.142363
62 1 -0.034846875 -0.00261666666667 0.008859375 0.136681
63 1 -0.034846875 -0.00261666666667 0.010040625 0.112553
64 1 -0.034846875 -0.00261666666667 0.011221875 0.108993
65 1 -0.034846875 -0.00125 -0.011221875 0.102038
66 1 -0.034846875 -0.00125 -0.010040625 0.150442
67 1 -0.034846875 -0.00125 -0.008859375 0.119274
68 1 -0.034846875 -0.00125 -0.007678125 0.16302
69 1 -0.034846875 -0.00125 -0.006496875 0.132486
70 1 -0.034846875 -0.00125 -0.005315625 0.171578
71 1 -0.034846875 -0.00125 -0.004134375 0.145017
72 1 -0.034846875 -0.00125 -0.002953125 0.179594
73 1 -0.034846875 -0.00125 -0.001771875 0.158207
74 1 -0.034846875 -0.00125 -0.000590625 0.187263
75 1 -0.034846875 -0.00125 0.000590625 0.1696
76 1 -0.034846875 -0.00125 0.001771875 0.191493
77 1 -0.034846875 -0.00125 0.002953125 0.173548
78 1 -0.034846875 -0.00125 0.004134375 0.183686
79 1 -0.034846875 -0.00125 0.005315625 0.165446
80 1 -0.034846875 -0.00125 0.006496875 0.164724
81 1 -0.034846875 -0.00125 0.007678125 0.142363
82 1 -0.034846875 -0.00125 0.008859375 0.136681
83 1 -0.034846875 -0.00125 0.010040625 0.112553
84 1 -0.034846875 -0.00125 0.011221875 0.108993
85 1 -0.034846875 0.000116666666667 -0.011221875 0.102038
86 1 -0.034846875 0.000116666666667 -0.010040625 0.150442
87 1 -0.034846875 0.000116666666667 -0.008859375 0.119274
88 1 -0.034846875 0.000116666666667 -0.007678125 0.16302
89 1 -0.034846875 0.000116666666667 -0.006496875 0.132486
90 1 -0.034846875 0.000116666666667 -0.005315625 0.171578
91 1 -0.034846875 0.000116666666667 -0.004134375 0.145017
92 1 -0.034846875 0.000116666666667 -0.002953125 0.179594
93 1 -0.034846875 0.000116666666667 -0.001771875 0.158207
94 1 -0.034846875 0.000116666666667 -0.000590625 0.187263
95 1 -0.034846875 0.000116666666667 0.000590625 0.1696
96 1 -0.034846875 0.000116666666667 0.001771875 0.191493
97 1 -0.034846875 0.000116666666667 0.002953125 0.173548
98 1 -0.034846875 0.000116666666667 0.004134375 0.183686
99 1 -0.034846875 0.000116666666667 0.005315625 0.165446
100 1 -0.034846875 0.000116666666667 0.006496875 0.164724
101 1 -0.034846875 0.000116666666667 0.007678125 0.142363
102 1 -0.034846875 0.000116666666667 0.008859375 0.136681
103 1 -0.034846875 0.000116666666667 0.010040625 0.112553
104 1 -0.034846875 0.000116666666667 0.011221875 0.108993
105 1 -0.033665625 -0.00261666666667 -0.013584375 0.127566
106 1 -0.033665625 -0.00261666666667 -0.012403125 0.23989
107 1 -0.033665625 -0.00261666666667 -0.011221875 0.171849
108 1 -0.033665625 -0.00261666666667 -0.010040625 0.276066
109 1 -0.033665625 -0.00261666666667 -0.008859375 0.207084
110 1 -0.033665625 -0.00261666666667 -0.007678125 0.29755
111 1 -0.033665625 -0.00261666666667 -0.006496875 0.233808
112 1 -0.033665625 -0.00261666666667 -0.005315625 0.314991
113 1 -0.033665625 -0.00261666666667 -0.004134375 0.255175
114 1 -0.033665625 -0.00261666666667 -0.002953125 0.330128
115 1 -0.033665625 -0.00261666666667 -0.001771875 0.276238
116 1 -0.033665625 -0.00261666666667 -0.000590625 0.346782
117 1 -0.033665625 -0.00261666666667 0.000590625 0.292091
118 1 -0.033665625 -0.00261666666667 0.001771875 0.356214
119 1 -0.033665625 -0.00261666666667 0.002953125 0.296146
120 1 -0.033665625 -0.00261666666667 0.004134375 0.35092
121 1 -0.033665625 -0.00261666666667 0.005315625 0.276133
122 1 -0.033665625 -0.00261666666667 0.006496875 0.323473
123 1 -0.033665625 -0.00261666666667 0.007678125 0.234402
124 1 -0.033665625 -0.00261666666667 0.008859375 0.27801
125 1 -0.033665625 -0.00261666666667 0.010040625 0.178871
126 1 -0.033665625 -0.00261666666667 0.011221875 0.220814
127 1 -0.033665625 -0.00261666666667 0.012403125 0.123698
128 1 -0.033665625 -0.00261666666667 0.013584375 0.164933
129 1 -0.033665625 -0.00125 -0.013584375 0.127566
130 1 -0.033665625 -0.00125 -0.012403125 0.23989
131 1 -0.033665625 -0.00125 -0.011221875 0.171849
132 1 -0.033665625 -0.00125 -0.010040625 0.276066
133 1 -0.033665625 -0.00125 -0.008859375 0.207084
134 1 -0.033665625 -0.00125 -0.007678125 0.29755
135 1 -0.033665625 -0.00125 -0.006496875 0.233808
136 1 -0.033665625 -0.00125 -0.005315625 0.314991
137 1 -0.033665625 -0.00125 -0.004134375 0.255175
138 1 -0.033665625 -0.00125 -0.002953125 0.330128
139 1 -0.033665625 -0.00125 -0.001771875 0.276238
140 1 -0.033665625 -0.00125 -0.000590625 0.346782
141 1 -0.033665625 -0.00125 0.000590625 0.292091
142 1 -0.033665625 -0.00125 0.001771875 0.356214
143 1 -0.033665625 -0.00125 0.002953125 0.296146
144 1 -0.033665625 -0.00125 0.004134375 0.35092
145 1 -0.033665625 -0.00125 0.005315625 0.276133
146 1 -0.033665625 -0.00125 0.006496875 0.323473
147 1 -0.033665625 -0.00125 0.007678125 0.234402
148 1 -0.033665625 -0.00125 0.008859375 0.27801
149 1 -0.033665625 -0.00125 0.010040625 0.178871
150 1 -0.033665625 -0.00125 0.011221875 0.220814
151 1 -0.033665625 -0.00125 0.012403125 0.123698
152 1 -0.033665625 -0.00125 0.013584375 0.164933
153 1 -0.033665625 0.000116666666667 -0.013584375 0.127566
154 1 -0.033665625 0.000116666666667 -0.012403125 0.23989
155 1 -0.033665625 0.000116666666667 -0.011221875 0.171849
156 1 -0.033665625 0.000116666666667 -0.010040625 0.276066
157 1 -0.033665625 0.000116666666667 -0.008859375 0.207084
158 1 -0.033665625 0.000116666666667 -0.007678125 0.29755
159 1 -0.033665625 0.000116666666667 -0.006496875 0.233808
160 1 -0.033665625 0.000116666666667 -0.005315625 0.314991
161 1 -0.033665625 0.000116666666667 -0.004134375 0.255175
162 1 -0.033665625 0.000116666666667 -0.002953125 0.330128
163 1 -0.033665625 0.000116666666667 -0.001771875 0.276238
164 1 -0.033665625 0.000116666666667 -0.000590625 0.346782
165 1 -0.033665625 0.000116666666667 0.000590625 0.292091
166 1 -0.033665625 0.000116666666667 0.001771875 0.356214
167 1 -0.033665625 0.000116666666667 0.002953125 0.296146
168 1 -0.033665625 0.000116666666667 0.004134375 0.35092
169 1 -0.033665625 0.000116666666667 0.005315625 0.276133
170 1 -0.033665625 0.000116666666667 0.006496875 0.323473
171 1 -0.033665625 0.000116666666667 0.007678125 0.234402
172 1 -0.033665625 0.000116666666667 0.008859375 0.27801
173 1 -0.033665625 0.000116666666667 0.010040625 0.178871
174 1 -0.033665625 0.000116666666667 0.011221875 0.220814
175 1 -0.033665625 0.000116666666667 0.012403125 0.123698
176 1 -0.033665625 0.000116666666667 0.013584375 0.164933
177 1 -0.032484375 -0.00261666666667 -0.018309375 0.0713423
178 1 -0.032484375 -0.00261666666667 -0.017128125 0.131583
179 1 -0.032484375 -0.00261666666667 -0.015946875 0.124795
180 1 -0.032484375 -0.00261666666667 -0.014765625 0.189556
181 1 -0.032484375 -0.00261666666667 -0.013584375 0.196061
182 1 -0.032484375 -0.00261666666667 -0.012403125 0.246741
183 1 -0.032484375 -0.00261666666667 -0.011221875 0.258367
184 1 -0.032484375 -0.00261666666667 -0.010040625 0.283532
185 1 -0.032484375 -0.00261666666667 -0.008859375 0.303909
186 1 -0.032484375 -0.00261666666667 -0.007678125 0.306849
187 1 -0.032484375 -0.00261666666667 -0.006496875 0.333266
188 1 -0.032484375 -0.00261666666667 -0.005315625 0.32209
189 1 -0.032484375 -0.00261666666667 -0.004134375 0.358121
190 1 -0.032484375 -0.00261666666667 -0.002953125 0.33446
191 1 -0.032484375 -0.00261666666667 -0.001771875 0.384367
192 1 -0.032484375 -0.00261666666667 -0.000590625 0.346675
193 1 -0.032484375 -0.00261666666667 0.000590625 0.407536
194 1 -0.032484375 -0.00261666666667 0.001771875 0.354946
195 1 -0.032484375 -0.00261666666667 0.002953125 0.417706
196 1 -0.032484375 -0.00261666666667 0.004134375 0.346073
197 1 -0.032484375 -0.00261666666667 0.005315625 0.407901
198 1 -0.032484375 -0.00261666666667 0.006496875 0.316799
199 1 -0.032484375 -0.00261666666667 0.007678125 0.361658
200 1 -0.032484375 -0.00261666666667 0.008859375 0.260677
201 1 -0.032484375 -0.00261666666667 0.010040625 0.288249
202 1 -0.032484375 -0.00261666666667 0.011221875 0.197389
203 1 -0.032484375 -0.00261666666667 0.012403125 0.201435
204 1 -0.032484375 -0.00261666666667 0.013584375 0.13613
205 1 -0.032484375 -0.00261666666667 0.014765625 0.125131
206 1 -0.032484375 -0.00261666666667 0.015946875 0.0890935
207 1 -0.032484375 -0.00261666666667 0.017128125 0.0744411
208 1 -0.032484375 -0.00261666666667 0.018309375 0.0600217
209 1 -0.032484375 -0.00125 -0.018309375 0.0713423
210 1 -0.032484375 -0.00125 -0.017128125 0.131583
211 1 -0.032484375 -0.00125 -0.015946875 0.124795
212 1 -0.032484375 -0.00125 -0.014765625 0.189556
213 1 -0.032484375 -0.00125 -0.013584375 0.196061
214 1 -0.032484375 -0.00125 -0.012403125 0.246741
215 1 -0.032484375 -0.00125 -0.011221875 0.258367
216 1 -0.032484375 -0.00125 -0.010040625 0.283532
217 1 -0.032484375 -0.00125 -0.008859375 0.303909
218 1 -0.032484375 -0.00125 -0.007678125 0.306849
219 1 -0.032484375 -0.00125 -0.006496875 0.333266
220 1 -0.032484375 -0.00125 -0.005315625 0.32209
221 1 -0.032484375 -0.00125 -0.004134375 0.358121
222 1 -0.032484375 -0.00125 -0.002953125 0.33446
223 1 -0.032484375 -0.00125 -0.001771875 0.384367
224 1 -0.032484375 -0.00125 -0.000590625 0.346675
225 1 -0.032484375 -0.00125 0.000590625 0.407536
226 1 -0.032484375 -0.00125 0.001771875 0.354946
227 1 -0.032484375 -0.00125 0.002953125 0.417706
228 1 -0.032484375 -0.00125 0.004134375 0.346073
229 1 -0.032484375 -0.00125 0.005315625 0.407901
230 1 -0.032484375 -0.00125 0.006496875 0.316799
231 1 -0.032484375 -0.00125 0.007678125 0.361658
232 1 -0.032484375 -0.00125 0.008859375 0.260677
233 1 -0.032484375 -0.00125 0.010040625 0.288249
234 1 -0.032484375 -0.00125 0.011221875 0.197389
235 1 -0.032484375 -0.00125 0.012403125 0.201435
236 1 -0.032484375 -0.00125 0.013584375 0.13613
237 1 -0.032484375 -0.00125 0.014765625 0.125131
238 1 -0.032484375 -0.00125 0.015946875 0.0890935
239 1 -0.032484375 -0.00125 0.017128125 0.0744411
240 1 -0.032484375 -0.00125 0.018309375 0.0600217
241 1 -0.032484375 0.000116666666667 -0.018309375 0.0713423
242 1 -0.032484375 0.000116666666667 -0.017128125 0.131583
243 1 -0.032484375 0.000116666666667 -0.015946875 0.124795
244 1 -0.032484375 0.000116666666667 -0.014765625 0.189556
245 1 -0.032484375 0.000116666666667 -0.013584375 0.196061
246 1 -0.032484375 0.000116666666667 -0.012403125 0.246741
247 1 -0.032484375 0.000116666666667 -0.011221875 0.258367
248 1 -0.032484375 0.000116666666667 -0.010040625 0.283532
249 1 -0.032484375 0.000116666666667 -0.008859375 0.303909
250 1 -0.032484375 0.000116666666667 -0.007678125 0.306849
251 1 -0.032484375 0.000116666666667 -0.006496875 0.333266
252 1 -0.032484375 0.000116666666667 -0.005315625 0.32209
253 1 -0.032484375 0.000116666666667 -0.004134375 0.358121
254 1 -0.032484375 0.000116666666667 -0.002953125 0.33446
255 1 -0.032484375 0.000116666666667 -0.001771875 0.384367
256 1 -0.032484375 0.000116666666667 -0.000590625 0.346675
257 1 -0.032484375 0.000116666666667 0.000590625 0.407536
258 1 -0.032484375 0.000116666666667 0.001771875 0.354946
259 1 -0.032484375 0.000116666666667 0.002953125 0.417706
260 1 -0.032484375 0.000116666666667 0.004134375 0.346073
261 1 -0.032484375 0.000116666666667 0.005315625 0.407901
262 1 -0.032484375 0.000116666666667 0.006496875 0.316799
263 1 -0.032484375 0.000116666666667 0.007678125 0.361658
264 1 -0.032484375 0.000116666666667 0.008859375 0.260677
265 1 -0.032484375 0.000116666666667 0.010040625 0.288249
266 1 -0.032484375 0.000116666666667 0.011221875 0.197389
267 1 -0.032484375 0.000116666666667 0.012403125 0.201435
268 1 -0.032484375 0.000116666666667 0.013584375 0.13613
269 1 -0.032484375 0.000116666666667 0.014765625 0.125131
270 1 -0.032484375 0.000116666666667 0.015946875 0.0890935
271 1 -0.032484375 0.000116666666667 0.017128125 0.0744411
272 1 -0.032484375 0.000116666666667 0.018309375 0.0600217
273 1 -0.031303125 -0.00261666666667 -0.019490625 0.174993
274 1 -0.031303125 -0.00261666666667 -0.018309375 0.140009
275 1 -0.031303125 -0.00261666666667 -0.017128125 0.261061
276 1 -0.031303125 -0.00261666666667 -0.015946875 0.246484
277 1 -0.031303125 -0.00261666666667 -0.014765625 0.352062
278 1 -0.031303125 -0.00261666666667 -0.013584375 0.355691
279 1 -0.031303125 -0.00261666666667 -0.012403125 0.420528
280 1 -0.031303125 -0.00261666666667 -0.011221875 0.438588
281 1 -0.031303125 -0.00261666666667 -0.010040625 0.459328
282 1 -0.031303125 -0.00261666666667 -0.008859375 0.484857
283 1 -0.031303125 -0.00261666666667 -0.007678125 0.478926
284 1 -0.031303125 -0.00261666666667 -0.006496875 0.512578
285 1 -0.031303125 -0.00261666666667 -0.005315625 0.493684
286 1 -0.031303125 -0.00261666666667 -0.004134375 0.530316
287 1 -0.031303125 -0.00261666666667 -0.002953125 0.504336
288 1 -0.031303125 -0.00261666666667 -0.001771875 0.546946
289 1 -0.031303125 -0.00261666666667 -0.000590625 0.518232
290 1 -0.031303125 -0.00261666666667 0.000590625 0.560635
291 1 -0.031303125 -0.00261666666667 0.001771875 0.527772
292 1 -0.031303125 -0.00261666666667 0.002953125 0.570396
293 1 -0.031303125 -0.00261666666667 0.004134375 0.52934
294 1 -0.031303125 -0.00261666666667 0.005315625 0.562616
295 1 -0.031303125 -0.00261666666667 0.006496875 0.512985
296 1 -0.031303125 -0.00261666666667 0.007678125 0.526423
297 1 -0.031303125 -0.00261666666667 0.008859375 0.46887
298 1 -0.031303125 -0.00261666666667 0.010040625 0.45015
299 1 -0.031303125 -0.00261666666667 0.011221875 0.398096
300 1 -0.031303125 -0.00261666666667 0.012403125 0.343116
301 1 -0.031303125 -0.00261666666667 0.013584375 0.308084
302 1 -0.031303125 -0.00261666666667 0.014765625 0.226282
303 1 -0.031303125 -0.00261666666667 0.015946875 0.215264
304 1 -0.031303125 -0.00261666666667 0.017128125 0.134673
305 1 -0.031303125 -0.00261666666667 0.018309375 0.146596
306 1 -0.031303125 -0.00261666666667 0.019490625 0.0782732
307 1 -0.031303125 -0.00125 -0.019490625 0.174993
308 1 -0.031303125 -0.00125 -0.018309375 0.140009
309 1 -0.031303125 -0.00125 -0.017128125 0.261061
310 1 -0.031303125 -0.00125 -0.015946875 0.246484
311 1 -0.031303125 -0.00125 -0.014765625 0.352062
312 1 -0.031303125 -0.00125 -0.013584375 0.355691
313 1 -0.031303125 -0.00125 -0.012403125 0.420528
314 1 -0.031303125 -0.00125 -0.011221875 0.438588
315 1 -0.031303125 -0.00125 -0.010040625 0.459328
316 1 -0.031303125 -0.00125 -0.008859375 0.484857
317 1 -0.031303125 -0.00125 -0.007678125 0.478926
318 1 -0.031303125 -0.00125 -0.006496875 0.512578
319 1 -0.031303125 -0.00125 -0.005315625 0.493684
320 1 -0.031303125 -0.00125 -0.004134375 0.530316
321 1 -0.031303125 -0.00125 -0.002953125 0.504336
322 1 -0.031303125 -0.00125 -0.001771875 0.546946
323 1 -0.031303125 -0.00125 -0.000590625 0.518232
324 1 -0.031303125 -0.00125 0.000590625 0.560635
325 1 -0.031303125 -0.00125 0.001771875 0.527772
326 1 -0.031303125 -0.00125 0.002953125 0.570396
327 1 -0.031303125 -0.00125 0.004134375 0.52934
328 1 -0.031303125 -0.00125 0.005315625 0.562616
329 1 -0.031303125 -0.00125 0.006496875 0.512985
330 1 -0.031303125 -0.00125 0.007678125 0.526423
331 1 -0.031303125 -0.00125 0.008859375 0.46887
332 1 -0.031303125 -0.00125 0.010040625 0.45015
333 1 -0.031303125 -0.00125 0.011221875 0.398096
334 1 -0.031303125 -0.00125 0.012403125 0.343116
335 1 -0.031303125 -0.00125 0.013584375 0.308084
336 1 -0.031303125 -0.00125 0.014765625 0.226282
337 1 -0.031303125 -0.00125 0.015946875 0.215264
338 1 -0.031303125 -0.00125 0.017128125 0.134673
339 1 -0.031303125 -0.00125 0.018309375 0.146596
340 1 -0.031303125 -0.00125 0.019490625 0.0782732
341 1 -0.031303125 0.000116666666667 -0.019490625 0.174993
342 1 -0.031303125 0.000116666666667 -0.018309375 0.140009
343 1 -0.031303125 0.000116666666667 -0.017128125 0.261061
344 1 -0.031303125 0.000116666666667 -0.015946875 0.246484
345 1 -0.031303125 0.000116666666667 -0.014765625 0.352062
346 1 -0.031303125 0.000116666666667 -0.013584375 0.355691
347 1 -0.031303125 0.000116666666667 -0.012403125 0.420528
348 1 -0.031303125 0.000116666666667 -0.011221875 0.438588
349 1 -0.031303125 0.000116666666667 -0.010040625 0.459328
350 1 -0.031303125 0.000116666666667 -0.008859375 0.484857
351 1 -0.031303125 0.000116666666667 -0.007678125 0.478926
352 1 -0.031303125 0.000116666666667 -0.006496875 0.512578
353 1 -0.031303125 0.000116666666667 -0.005315625 0.493684
354 1 -0.031303125 0.000116666666667 -0.004134375 0.530316
355 1 -0.031303125 0.000116666666667 -0.002953125 0.504336
356 1 -0.031303125 0.000116666666667 -0.001771875 0.546946
357 1 -0.031303125 0.000116666666667 -0.000590625 0.518232
358 1 -0.031303125 0.000116666666667 0.000590625 0.560635
359 1 -0.031303125 0.000116666666667 0.001771875 0.527772
360 1 -0.031303125 0.000116666666667 0.002953125 0.570396
361 1 -0.031303125 0.000116666666667 0.004134375 0.52934
362 1 -0.031303125 0.000116666666667 0.005315625 0.562616
363 1 -0.031303125 0.000116666666667 0.006496875 0.512985
364 1 -0.031303125 0.000116666666667 0.007678125 0.526423
365 1 -0.031303125 0.000116666666667 0.008859375 0.46887
366 1 -0.031303125 0.000116666666667 0.010040625 0.45015
367 1 -0.031303125 0.000116666666667 0.011221875 0.398096
368 1 -0.031303125 0.000116666666667 0.012403125 0.343116
369 1 -0.031303125 0.000116666666667 0.013584375 0.308084
370 1 -0.031303125 0.000116666666667 0.014765625 0.226282
371 1 -0.031303125 0.000116666666667 0.015946875 0.215264
372 1 -0.031303125 0.000116666666667 0.017128125 0.134673
373 1 -0.031303125 0.000116666666667 0.018309375 0.146596
374 1 -0.031303125 0.000116666666667 0.019490625 0.0782732
375 1 -0.030121875 -0.00261666666667 -0.020671875 0.0976638
376 1 -0.030121875 -0.00261666666667 -0.019490625 0.175264
377 1 -0.030121875 -0.00261666666667 -0.018309375 0.197624
378 1 -0.030121875 -0.00261666666667 -0.017128125 0.286275
379 1 -0.030121875 -0.00261666666667 -0.015946875 0.319647
380 1 -0.030121875 -0.00261666666667 -0.014765625 0.385762
381 1 -0.030121875 -0.00261666666667 -0.013584375 0.423973
382 1 -0.030121875 -0.00261666666667 -0.012403125 0.446262
383 1 -0.030121875 -0.00261666666667 -0.011221875 0.484623
384 1 -0.030121875 -0.00261666666667 -0.010040625 0.472521
385 1 -0.030121875 -0.00261666666667 -0.008859375 0.511772
386 1 -0.030121875 -0.00261666666667 -0.007678125 0.485286
387 1 -0.030121875 -0.00261666666667 -0.006496875 0.522563
388 1 -0.030121875 -0.00261666666667 -0.005315625 0.49198
389 1 -0.030121875 -0.00261666666667 -0.004134375 0.530103
390 1 -0.030121875 -0.00261666666667 -0.002953125 0.498364
391 1 -0.030121875 -0.00261666666667 -0.001771875 0.542218
392 1 -0.030121875 -0.00261666666667 -0.000590625 0.508524
393 1 -0.030121875 -0.00261666666667 0.000590625 0.558733
394 1 -0.030121875 -0.00261666666667 0.001771875 0.517758
395 1 -0.030121875 -0.00261666666667 0.002953125 0.575234
396 1 -0.030121875 -0.00261666666667 0.004134375 0.514346
397 1 -0.030121875 -0.00261666666667 0.005315625 0.588702
398 1 -0.030121875 -0.00261666666667 0.006496875 0.497089
399 1 -0.030121875 -0.00261666666667 0.007678125 0.57691
400 1 -0.030121875 -0.00261666666667 0.008859375 0.45246
401 1 -0.030121875 -0.00261666666667 0.010040625 0.536768
402 1 -0.030121875 -0.00261666666667 0.011221875 0.390492
403 1 -0.030121875 -0.00261666666667 0.012403125 0.451437
404 1 -0.030121875 -0.00261666666667 0.013584375 0.299679
405 1 -0.030121875 -0.00261666666667 0.014765625 0.318541
406 1 -0.030121875 -0.00261666666667 0.015946875 0.198123
407 1 -0.030121875 -0.00261666666667 0.017128125 0.195582
408 1 -0.030121875 -0.00261666666667 0.018309375 0.125991
409 1 -0.030121875 -0.00261666666667 0.019490625 0.113489
410 1 -0.030121875 -0.00261666666667 0.020671875 0.0847151
411 1 -0.030121875 -0.00125 -0.020671875 0.0976638
412 1 -0.030121875 -0.00125 -0.019490625 0.175264
413 1 -0.030121875 -0.00125 -0.018309375 0.197624
414 1 -0.030121875 -0.00125 -0.017128125 0.286275
415 1 -0.030121875 -0.00125 -0.015946875 0.319647
416 1 -0.030121875 -0.00125 -0.014765625 0.385762
417 1 -0.030121875 -0.00125 -0.013584375 0.423973
418 1 -0.030121875 -0.00125 -0.012403125 0.446262
419 1 -0.030121875 -0.00125 -0.011221875 0.484623
420 1 -0.030121875 -0.00125 -0.010040625 0.472521
421 1 -0.030121875 -0.00125 -0.008859375 0.511772
422 1 -0.030121875 -0.00125 -0.007678125 0.485286
423 1 -0.030121875 -0.00125 -0.006496875 0.522563
424 1 -0.030121875 -0.00125 -0.005315625 0.49198
425 1 -0.030121875 -0.00125 -0.004134375 0.530103
426 1 -0.030121875 -0.00125 -0.002953125 0.498364
427 1 -0.030121875 -0.00125 -0.001771875 0.542218
428 1 -0.030121875 -0.00125 -0.000590625 0.508524
429 1 -0.030121875 -0.00125 0.000590625 0.558733
430 1 -0.030121875 -0.00125 0.001771875 0.517758
431 1 -0.030121875 -0.00125 0.002953125 0.575234
432 1 -0.030121875 -0.00125 0.004134375 0.514346
433 1 -0.030121875 -0.00125 0.005315625 0.588702
434 1 -0.030121875 -0.00125 0.006496875 0.497089
435 1 -0.030121875 -0.00125 0.007678125 0.57691
436 1 -0.030121875 -0.00125 0.008859375 0.45246
437 1 -0.030121875 -0.00125 0.010040625 0.536768
438 1 -0.030121875 -0.00125 0.011221875 0.390492
439 1 -0.030121875 -0.00125 0.012403125 0.451437
440 1 -0.030121875 -0.00125 0.013584375 0.299679
441 1 -0.030121875 -0.00125 0.014765625 0.318541
442 1 -0.030121875 -0.00125 0.015946875 0.198123
443 1 -0.030121875 -0.00125 0.017128125 0.195582
444 1 -0.030121875 -0.00125 0.018309375 0.125991
445 1 -0.030121875 -0.00125 0.019490625 0.113489
446 1 -0.030121875 -0.00125 0.020671875 0.0847151
447 1 -0.030121875 0.000116666666667 -0.020671875 0.0976638
448 1 -0.030121875 0.000116666666667 -0.019490625 0.175264
449 1 -0.030121875 0.000116666666667 -0.018309375 0.197624
450 1 -0.030121875 0.000116666666667 -0.017128125 0.286275
451 1 -0.030121875 0.000116666666667 -0.015946875 0.319647
452 1 -0.030121875 0.000116666666667 -0.014765625 0.385762
453 1 -0.030121875 0.000116666666667 -0.013584375 0.423973
454 1 -0.030121875 0.000116666666667 -0.012403125 0.446262
455 1 -0.030121875 0.000116666666667 -0.011221875 0.484623
456 1 -0.030121875 0.000116666666667 -0.010040625 0.472521
457 1 -0.030121875 0.000116666666667 -0.008859375 0.511772
458 1 -0.030121875 0.000116666666667 -0.007678125 0.485286
459 1 -0.030121875 0.000116666666667 -0.006496875 0.522563
460 1 -0.030121875 0.000116666666667 -0.005315625 0.49198
461 1 -0.030121875 0.000116666666667 -0.004134375 0.530103
462 1 -0.030121875 0.000116666666667 -0.002953125 0.498364
463 1 -0.030121875 0.000116666666667 -0.001771875 0.542218
464 1 -0.030121875 0.000116666666667 -0.000590625 0.508524
465 1 -0.030121875 0.000116666666667 0.000590625 0.558733
466 1 -0.030121875 0.000116666666667 0.001771875 0.517758
467 1 -0.030121875 0.000116666666667 0.002953125 0.575234
468 1 -0.030121875 0.000116666666667 0.004134375 0.514346
469 1 -0.030121875 0.000116666666667 0.005315625 0.588702
470 1 -0.030121875 0.000116666666667 0.006496875 0.497089
471 1 -0.030121875 0.000116666666667 0.007678125 0.57691
472 1 -0.030121875 0.000116666666667 0.008859375 0.45246
473 1 -0.030121875 0.000116666666667 0.010040625 0.536768
474 1 -0.030121875 0.000116666666667 0.011221875 0.390492
475 1 -0.030121875 0.000116666666667 0.012403125 0.451437
476 1 -0.030121875 0.000116666666667 0.013584375 0.299679
477 1 -0.030121875 0.000116666666667 0.014765625 0.318541
478 1 -0.030121875 0.000116666666667 0.015946875 0.198123
479 1 -0.030121875 0.000116666666667 0.017128125 0.195582
480 1 -0.030121875 0.000116666666667 0.018309375 0.125991
481 1 -0.030121875 0.000116666666667 0.019490625 0.113489
482 1 -0.030121875 0.000116666666667 0.020671875 0.0847151
483 1 -0.028940625 -0.00261666666667 -0.021853125 0.200563
484 1 -0.028940625 -0.00261666666667 -0.020671875 0.172233
485 1 -0.028940625 -0.00261666666667 -0.019490625 0.31303
486 1 -0.028940625 -0.00261666666667 -0.018309375 0.319511
487 1 -0.028940625 -0.00261666666667 -0.017128125 0.4294
488 1 -0.028940625 -0.00261666666667 -0.015946875 0.468781
489 1 -0.028940625 -0.00261666666667 -0.014765625 0.509722
490 1 -0.028940625 -0.00261666666667 -0.013584375 0.547857
491 1 -0.028940625 -0.00261666666667 -0.012403125 0.539199
492 1 -0.028940625 -0.00261666666667 -0.011221875 0.573268
493 1 -0.028940625 -0.00261666666667 -0.010040625 0.552222
494 1 -0.028940625 -0.00261666666667 -0.008859375 0.579895
495 1 -0.028940625 -0.00261666666667 -0.007678125 0.554468
496 1 -0.028940625 -0.00261666666667 -0.006496875 0.582681
497 1 -0.028940625 -0.00261666666667 -0.005315625 0.558533
498 1 -0.028940625 -0.00261666666667 -0.004134375 0.584375
499 1 -0.028940625 -0.00261666666667 -0.002953125 0.562686
500 1 -0.028940625 -0.00261666666667 -0.001771875 0.591875
501 1 -0.028940625 -0.00261666666667 -0.000590625 0.574197
502 1 -0.028940625 -0.00261666666667 0.000590625 0.602942
503 1 -0.028940625 -0.00261666666667 0.001771875 0.584313
504 1 -0.028940625 -0.00261666666667 0.002953125 0.616577
505 1 -0.028940625 -0.00261666666667 0.004134375 0.59073
506 1 -0.028940625 -0.00261666666667 0.005315625 0.623691
507 1 -0.028940625 -0.00261666666667 0.006496875 0.587268
508 1 -0.028940625 -0.00261666666667 0.007678125 0.621945
509 1 -0.028940625 -0.00261666666667 0.008859375 0.570292
510 1 -0.028940625 -0.00261666666667 0.010040625 0.608012
511 1 -0.028940625 -0.00261666666667 0.011221875 0.535457
512 1 -0.028940625 -0.00261666666667 0.012403125 0.558681
513 1 -0.028940625 -0.00261666666667 0.013584375 0.468973
514 1 -0.028940625 -0.00261666666667 0.014765625 0.452653
515 1 -0.028940625 -0.00261666666667 0.015946875 0.366561
516 1 -0.028940625 -0.00261666666667 0.017128125 0.311077
517 1 -0.028940625 -0.00261666666667 0.018309375 0.263617
518 1 -0.028940625 -0.00261666666667 0.019490625 0.195016
519 1 -0.028940625 -0.00261666666667 0.020671875 0.187722
520 1 -0.028940625 -0.00261666666667 0.021853125 0.122787
521 1 -0.028940625 -0.00125 -0.021853125 0.200563
522 1 -0.028940625 -0.00125 -0.020671875 0.172233
523 1 -0.028940625 -0.00125 -0.019490625 0.31303
524 1 -0.028940625 -0.00125 -0.018309375 0.319511
525 1 -0.028940625 -0.00125 -0.017128125 0.4294
526 1 -0.028940625 -0.00125 -0.015946875 0.468781
527 1 -0.028940625 -0.00125 -0.014765625 0.509722
528 1 -0.028940625 -0.00125 -0.013584375 0.547857
529 1 -0.028940625 -0.00125 -0.012403125 0.539199
530 1 -0.028940625 -0.00125 -0.011221875 0.573268
531 1 -0.028940625 -0.00125 -0.010040625 0.552222
532 1 -0.028940625 -0.00125 -0.008859375 0.579895
533 1 -0.028940625 -0.00125 -0.007678125 0.554468
534 1 -0.028940625 -0.00125 -0.006496875 0.582681
535 1 -0.028940625 -0.00125 -0.005315625 0.558533
536 1 -0.028940625 -0.00125 -0.004134375 0.584375
537 1 -0.028940625 -0.00125 -0.002953125 0.562686