ITEM: TIMESTEP
0
ITEM: NUMBER OF ATOMS
9240
ITEM: BOX BOUNDS ss ss ss
-3.7007399999999996e-02 3.7007399999999996e-02
-2.0002499999999999e-03 2.5000000000000004e-07
-3.7007399999999996e-02 3.7007399999999996e-02
ITEM: ATOMS id type x y z c_1
0 1 -0.037209375 -0.00261666666667 -0.000590625 0.269498
1 1 -0.037209375 -0.00125 -0.000590625 0.269498
2 1 -0.037209375 0.000116666666667 -0.000590625 0.269498
3 1 -0.036028125 -0.00261666666667 -0.007678125 0.189328
4 1 -0.036028125 -0.00261666666667 -0.006496875 0.103485
5 1 -0.036028125 -0.00261666666667 -0.005315625 0.198766
6 1 -0.036028125 -0.00261666666667 -0.004134375 0.112003
7 1 -0.036028125 -0.00261666666667 -0.002953125 0.206295
8 1 -0.036028125 -0.00261666666667 -0.001771875 0.120145
9 1 -0.036028125 -0.00261666666667 -0.000590625 0.213775
10 1 -0.036028125 -0.00261666666667 0.000590625 0.126196
11 1 -0.036028125 -0.00261666666667 0.001771875 0.217309
12 1 -0.036028125 -0.00261666666667 0.002953125 0.128264
13 1 -0.036028125 -0.00261666666667 0.004134375 0.214042
14 1 -0.036028125 -0.00261666666667 0.005315625 0.122742
15 1 -0.036028125 -0.00261666666667 0.006496875 0.201102
16 1 -0.036028125 -0.00261666666667 0.007678125 0.111437
17 1 -0.036028125 -0.00125 -0.007678125 0.189328
18 1 -0.036028125 -0.00125 -0.006496875 0.103485
19 1 -0.036028125 -0.00125 -0.005315625 0.198766
20 1 -0.036028125 -0.00125 -0.004134375 0.112003
21 1 -0.036028125 -0.00125 -0.002953125 0.206295
22 1 -0.036028125 -0.00125 -0.001771875 0.120145
23 1 -0.036028125 -0.00125 -0.000590625 0.213775
24 1 -0.036028125 -0.00125 0.000590625 0.126196
25 1 -0.036028125 -0.00125 0.001771875 0.217309
26 1 -0.036028125 -0.00125 0.002953125 0.128264
27 1 -0.036028125 -0.00125 0.004134375 0.214042
28 1 -0.036028125 -0.00125 0.005315625 0.122742
29 1 -0.036028125 -0.00125 0.006496875 0.201102
30 1 -0.036028125 -0.00125 0.007678125 0.111437
31 1 -0.036028125 0.000116666666667 -0.007678125 0.189328
32 1 -0.036028125 0.000116666666667 -0.006496875 0.103485
33 1 -0.036028125 0.000116666666667 -0.005315625 0.198766
34 1 -0.036028125 0.000116666666667 -0.004134375 0.112003
35 1 -0.036028125 0.000116666666667 -0.002953125 0.206295
36 1 -0.036028125 0.000116666666667 -0.001771875 0.120145
37 1 -0.036028125 0.000116666666667 -0.000590625 0.213775
38 1 -0.036028125 0.000116666666667 0.000590625 0.126196
39 1 -0.036028125 0.000116666666667 0.001771875 0.217309
40 1 -0.036028125 0.000116666666667 0.002953125 0.128264
41 1 -0.036028125 0.000116666666667 0.004134375 0.214042
42 1 -0.036028125 0.000116666666667 0.005315625 0.122742
43 1 -0.036028125 0.000116666666667 0.006496875 0.201102
44 1 -0.036028125 0.000116666666667 0.007678125 0.111437
45 1 -0.034846875 -0.00261666666667 -0.011221875 0.0879032
46 1 -0.034846875 -0.00261666666667 -0.010040625 0.136915
47 1 -0.034846875 -0.00261666666667 -0.008859375 0.104128
48 1 -0.034846875 -0.00261666666667 -0.007678125 0.149949
49 1 -0.034846875 -0.00261666666667 -0.006496875 0.117175
50 1 -0.034846875 -0.00261666666667 -0.005315625 0.158717
51 1 -0.034846875 -0.00261666666667 -0.004134375 0.129441
52 1 -0.034846875 -0.00261666666667 -0.002953125 0.166869
53 1 -0.034846875 -0.00261666666667 -0.001771875 0.140983
54 1 -0.034846875 -0.00261666666667 -0.000590625 0.173146
55 1 -0.034846875 -0.00261666666667 0.000590625 0.14953
56 1 -0.034846875 -0.00261666666667 0.001771875 0.176177
57 1 -0.034846875 -0.00261666666667 0.002953125 0.151268
58 1 -0.034846875 -0.00261666666667 0.004134375 0.169394
59 1 -0.034846875 -0.00261666666667 0.005315625 0.143609
60 1 -0.034846875 -0.00261666666667 0.006496875 0.15451
61 1 -0.034846875 -0.00261666666667 0.007678125 0.126306
62 1 -0.034846875 -0.00261666666667 0.008859375 0.132861
63 1 -0.034846875 -0.00261666666667 0.010040625 0.103455
64 1 -0.034846875 -0.00261666666667 0.011221875 0.110227
65 1 -0.034846875 -0.00125 -0.011221875 0.0879032
66 1 -0.034846875 -0.00125 -0.010040625 0.136915
67 1 -0.034846875 -0.00125 -0.008859375 0.104128
68 1 -0.034846875 -0.00125 -0.007678125 0.149949
69 1 -0.034846875 -0.00125 -0.006496875 0.117175
70 1 -0.034846875 -0.00125 -0.005315625 0.158717
71 1 -0.034846875 -0.00125 -0.004134375 0.129441
72 1 -0.034846875 -0.00125 -0.002953125 0.166869
73 1 -0.034846875 -0.00125 -0.001771875 0.140983
74 1 -0.034846875 -0.00125 -0.000590625 0.173146
75 1 -0.034846875 -0.00125 0.000590625 0.14953
76 1 -0.034846875 -0.00125 0.001771875 0.176177
77 1 -0.034846875 -0.00125 0.002953125 0.151268
78 1 -0.034846875 -0.00125 0.004134375 0.169394
79 1 -0.034846875 -0.00125 0.005315625 0.143609
80 1 -0.034846875 -0.00125 0.006496875 0.15451
81 1 -0.034846875 -0.00125 0.007678125 0.126306
82 1 -0.034846875 -0.00125 0.008859375 0.132861
83 1 -0.034846875 -0.00125 0.010040625 0.103455
84 1 -0.034846875 -0.00125 0.011221875 0.110227
85 1 -0.034846875 0.000116666666667 -0.011221875 0.0879032
86 1 -0.034846875 0.000116666666667 -0.010040625 0.136915
87 1 -0.034846875 0.000116666666667 -0.008859375 0.104128
88 1 -0.034846875 0.000116666666667 -0.007678125 0.149949
89 1 -0.034846875 0.000116666666667 -0.006496875 0.117175
90 1 -0.034846875 0.000116666666667 -0.005315625 0.158717
91 1 -0.034846875 0.000116666666667 -0.004134375 0.129441
92 1 -0.034846875 0.000116666666667 -0.002953125 0.166869
93 1 -0.034846875 0.000116666666667 -0.001771875 0.140983
94 1 -0.034846875 0.000116666666667 -0.000590625 0.173146
95 1 -0.034846875 0.000116666666667 0.000590625 0.14953
96 1 -0.034846875 0.000116666666667 0.001771875 0.176177
97 1 -0.034846875 0.000116666666667 0.002953125 0.151268
98 1 -0.034846875 0.000116666666667 0.004134375 0.169394
99 1 -0.034846875 0.000116666666667 0.005315625 0.143609
100 1 -0.034846875 0.000116666666667 0.006496875 0.15451
101 1 -0.034846875 0.000116666666667 0.007678125 0.126306
102 1 -0.034846875 0.000116666666667 0.008859375 0.132861
103 1 -0.034846875 0.000116666666667 0.010040625 0.103455
104 1 -0.034846875 0.000116666666667 0.011221875 0.110227
105 1 -0.033665625 -0.00261666666667 -0.013584375 0.127409
106 1 -0.033665625 -0.00261666666667 -0.012403125 0.234961
107 1 -0.033665625 -0.00261666666667 -0.011221875 0.170125
108 1 -0.033665625 -0.00261666666667 -0.010040625 0.272251
109 1 -0.033665625 -0.00261666666667 -0.008859375 0.206012
110 1 -0.033665625 -0.00261666666667 -0.007678125 0.295722
111 1 -0.033665625 -0.00261666666667 -0.006496875 0.234004
112 1 -0.033665625 -0.00261666666667 -0.005315625 0.313847
113 1 -0.033665625 -0.00261666666667 -0.004134375 0.254871
114 1 -0.033665625 -0.00261666666667 -0.002953125 0.327065
115 1 -0.033665625 -0.00261666666667 -0.001771875 0.273395
116 1 -0.033665625 -0.00261666666667 -0.000590625 0.339512
117 1 -0.033665625 -0.00261666666667 0.000590625 0.285214
118 1 -0.033665625 -0.00261666666667 0.001771875 0.343998
119 1 -0.033665625 -0.00261666666667 0.002953125 0.286651
120 1 -0.033665625 -0.00261666666667 0.004134375 0.336107
121 1 -0.033665625 -0.00261666666667 0.005315625 0.268313
122 1 -0.033665625 -0.00261666666667 0.006496875 0.309734
123 1 -0.033665625 -0.00261666666667 0.007678125 0.232532
124 1 -0.033665625 -0.00261666666667 0.008859375 0.269909
125 1 -0.033665625 -0.00261666666667 0.010040625 0.184251
126 1 -0.033665625 -0.00261666666667 0.011221875 0.219542
127 1 -0.033665625 -0.00261666666667 0.012403125 0.133804
128 1 -0.033665625 -0.00261666666667 0.013584375 0.171977
129 1 -0.033665625 -0.00125 -0.013584375 0.127409
130 1 -0.033665625 -0.00125 -0.012403125 0.234961
131 1 -0.033665625 -0.00125 -0.011221875 0.170125
132 1 -0.033665625 -0.00125 -0.010040625 0.272251
133 1 -0.033665625 -0.00125 -0.008859375 0.206012
134 1 -0.033665625 -0.00125 -0.007678125 0.295722
135 1 -0.033665625 -0.00125 -0.006496875 0.234004
136 1 -0.033665625 -0.00125 -0.005315625 0.313847
137 1 -0.033665625 -0.00125 -0.004134375 0.254871
138 1 -0.033665625 -0.00125 -0.002953125 0.327065
139 1 -0.033665625 -0.00125 -0.001771875 0.273395
140 1 -0.033665625 -0.00125 -0.000590625 0.339512
141 1 -0.033665625 -0.00125 0.000590625 0.285214
142 1 -0.033665625 -0.00125 0.001771875 0.343998
143 1 -0.033665625 -0.00125 0.002953125 0.286651
144 1 -0.033665625 -0.00125 0.004134375 0.336107
145 1 -0.033665625 -0.00125 0.005315625 0.268313
146 1 -0.033665625 -0.00125 0.006496875 0.309734
147 1 -0.033665625 -0.00125 0.007678125 0.232532
148 1 -0.033665625 -0.00125 0.008859375 0.269909
149 1 -0.033665625 -0.00125 0.010040625 0.184251
150 1 -0.033665625 -0.00125 0.011221875 0.219542
151 1 -0.033665625 -0.00125 0.012403125 0.133804
152 1 -0.033665625 -0.00125 0.013584375 0.171977
153 1 -0.033665625 0.000116666666667 -0.013584375 0.127409
154 1 -0.033665625 0.000116666666667 -0.012403125 0.234961
155 1 -0.033665625 0.000116666666667 -0.011221875 0.170125
156 1 -0.033665625 0.000116666666667 -0.010040625 0.272251
157 1 -0.033665625 0.000116666666667 -0.008859375 0.206012
158 1 -0.033665625 0.000116666666667 -0.007678125 0.295722
159 1 -0.033665625 0.000116666666667 -0.006496875 0.234004
160 1 -0.033665625 0.000116666666667 -0.005315625 0.313847
161 1 -0.033665625 0.000116666666667 -0.004134375 0.254871
162 1 -0.033665625 0.000116666666667 -0.002953125 0.327065
163 1 -0.033665625 0.000116666666667 -0.001771875 0.273395
164 1 -0.033665625 0.000116666666667 -0.000590625 0.339512
165 1 -0.033665625 0.000116666666667 0.000590625 0.285214
166 1 -0.033665625 0.000116666666667 0.001771875 0.343998
167 1 -0.033665625 0.000116666666667 0.002953125 0.286651
168 1 -0.033665625 0.000116666666667 0.004134375 0.336107
169 1 -0.033665625 0.000116666666667 0.005315625 0.268313
170 1 -0.033665625 0.000116666666667 0.006496875 0.309734
171 1 -0.033665625 0.000116666666667 0.007678125 0.232532
172 1 -0.033665625 0.000116666666667 0.008859375 0.269909
173 1 -0.033665625 0.000116666666667 0.010040625 0.184251
174 1 -0.033665625 0.000116666666667 0.011221875 0.219542
175 1 -0.033665625 0.000116666666667 0.012403125 0.133804
176 1 -0.033665625 0.000116666666667 0.013584375 0.171977
177 1 -0.032484375 -0.00261666666667 -0.018309375 0.0864357
178 1 -0.032484375 -0.00261666666667 -0.017128125 0.140203
179 1 -0.032484375 -0.00261666666667 -0.015946875 0.142412
180 1 -0.032484375 -0.00261666666667 -0.014765625 0.193237
181 1 -0.032484375 -0.00261666666667 -0.013584375 0.212861
182 1 -0.032484375 -0.00261666666667 -0.012403125 0.247751
183 1 -0.032484375 -0.00261666666667 -0.011221875 0.277604
184 1 -0.032484375 -0.00261666666667 -0.010040625 0.28559
185 1 -0.032484375 -0.00261666666667 -0.008859375 0.32658
186 1 -0.032484375 -0.00261666666667 -0.007678125 0.310958
187 1 -0.032484375 -0.00261666666667 -0.006496875 0.357647
188 1 -0.032484375 -0.00261666666667 -0.005315625 0.326117
189 1 -0.032484375 -0.00261666666667 -0.004134375 0.381432
190 1 -0.032484375 -0.00261666666667 -0.002953125 0.336088
191 1 -0.032484375 -0.00261666666667 -0.001771875 0.403424
192 1 -0.032484375 -0.00261666666667 -0.000590625 0.344351
193 1 -0.032484375 -0.00261666666667 0.000590625 0.419745
194 1 -0.032484375 -0.00261666666667 0.001771875 0.347995
195 1 -0.032484375 -0.00261666666667 0.002953125 0.423989
196 1 -0.032484375 -0.00261666666667 0.004134375 0.336651
197 1 -0.032484375 -0.00261666666667 0.005315625 0.409359
198 1 -0.032484375 -0.00261666666667 0.006496875 0.307102
199 1 -0.032484375 -0.00261666666667 0.007678125 0.364583
200 1 -0.032484375 -0.00261666666667 0.008859375 0.257535
201 1 -0.032484375 -0.00261666666667 0.010040625 0.296087
202 1 -0.032484375 -0.00261666666667 0.011221875 0.200575
203 1 -0.032484375 -0.00261666666667 0.012403125 0.213846
204 1 -0.032484375 -0.00261666666667 0.013584375 0.144964
205 1 -0.032484375 -0.00261666666667 0.014765625 0.139342
206 1 -0.032484375 -0.00261666666667 0.015946875 0.100854
207 1 -0.032484375 -0.00261666666667 0.017128125 0.0864917
208 1 -0.032484375 -0.00261666666667 0.018309375 0.0716217
209 1 -0.032484375 -0.00125 -0.018309375 0.0864357
210 1 -0.032484375 -0.00125 -0.017128125 0.140203
211 1 -0.032484375 -0.00125 -0.015946875 0.142412
212 1 -0.032484375 -0.00125 -0.014765625 0.193237
213 1 -0.032484375 -0.00125 -0.013584375 0.212861
214 1 -0.032484375 -0.00125 -0.012403125 0.247751
215 1 -0.032484375 -0.00125 -0.011221875 0.277604
216 1 -0.032484375 -0.00125 -0.010040625 0.28559
217 1 -0.032484375 -0.00125 -0.008859375 0.32658
218 1 -0.032484375 -0.00125 -0.007678125 0.310958
219 1 -0.032484375 -0.00125 -0.006496875 0.357647
220 1 -0.032484375 -0.00125 -0.005315625 0.326117
221 1 -0.032484375 -0.00125 -0.004134375 0.381432
222 1 -0.032484375 -0.00125 -0.002953125 0.336088
223 1 -0.032484375 -0.00125 -0.001771875 0.403424
224 1 -0.032484375 -0.00125 -0.000590625 0.344351
225 1 -0.032484375 -0.00125 0.000590625 0.419745
226 1 -0.032484375 -0.00125 0.001771875 0.347995
227 1 -0.032484375 -0.00125 0.002953125 0.423989
228 1 -0.032484375 -0.00125 0.004134375 0.336651
229 1 -0.032484375 -0.00125 0.005315625 0.409359
230 1 -0.032484375 -0.00125 0.006496875 0.307102
231 1 -0.032484375 -0.00125 0.007678125 0.364583
232 1 -0.032484375 -0.00125 0.008859375 0.257535
233 1 -0.032484375 -0.00125 0.010040625 0.296087
234 1 -0.032484375 -0.00125 0.011221875 0.200575
235 1 -0.032484375 -0.00125 0.012403125 0.213846
236 1 -0.032484375 -0.00125 0.013584375 0.144964
237 1 -0.032484375 -0.00125 0.014765625 0.139342
238 1 -0.032484375 -0.00125 0.015946875 0.100854
239 1 -0.032484375 -0.00125 0.017128125 0.0864917
240 1 -0.032484375 -0.00125 0.018309375 0.0716217
241 1 -0.032484375 0.000116666666667 -0.018309375 0.0864357
242 1 -0.032484375 0.000116666666667 -0.017128125 0.140203
243 1 -0.032484375 0.000116666666667 -0.015946875 0.142412
244 1 -0.032484375 0.000116666666667 -0.014765625 0.193237
245 1 -0.032484375 0.000116666666667 -0.013584375 0.212861
246 1 -0.032484375 0.000116666666667 -0.012403125 0.247751
247 1 -0.032484375 0.000116666666667 -0.011221875 0.277604
248 1 -0.032484375 0.000116666666667 -0.010040625 0.28559
249 1 -0.032484375 0.000116666666667 -0.008859375 0.32658
250 1 -0.032484375 0.000116666666667 -0.007678125 0.310958
251 1 -0.032484375 0.000116666666667 -0.006496875 0.357647
252 1 -0.032484375 0.000116666666667 -0.005315625 0.326117
253 1 -0.032484375 0.000116666666667 -0.004134375 0.381432
254 1 -0.032484375 0.000116666666667 -0.002953125 0.336088
255 1 -0.032484375 0.000116666666667 -0.001771875 0.403424
256 1 -0.032484375 0.000116666666667 -0.000590625 0.344351
257 1 -0.032484375 0.000116666666667 0.000590625 0.419745
258 1 -0.032484375 0.000116666666667 0.001771875 0.347995
259 1 -0.032484375 0.000116666666667 0.002953125 0.423989
260 1 -0.032484375 0.000116666666667 0.004134375 0.336651
261 1 -0.032484375 0.000116666666667 0.005315625 0.409359
262 1 -0.032484375 0.000116666666667 0.006496875 0.307102
263 1 -0.032484375 0.000116666666667 0.007678125 0.364583
264 1 -0.032484375 0.000116666666667 0.008859375 0.257535
265 1 -0.032484375 0.000116666666667 0.010040625 0.296087
266 1 -0.032484375 0.000116666666667 0.011221875 0.200575
267 1 -0.032484375 0.000116666666667 0.012403125 0.213846
268 1 -0.032484375 0.000116666666667 0.013584375 0.144964
269 1 -0.032484375 0.000116666666667 0.014765625 0.139342
270 1 -0.032484375 0.000116666666667 0.015946875 0.100854
271 1 -0.032484375 0.000116666666667 0.017128125 0.0864917
272 1 -0.032484375 0.000116666666667 0.018309375 0.0716217
273 1 -0.031303125 -0.00261666666667 -0.019490625 0.205065
274 1 -0.031303125 -0.00261666666667 -0.018309375 0.174603
275 1 -0.031303125 -0.00261666666667 -0.017128125 0.28582
276 1 -0.031303125 -0.00261666666667 -0.015946875 0.281299
277 1 -0.031303125 -0.00261666666667 -0.014765625 0.372623
278 1 -0.031303125 -0.00261666666667 -0.013584375 0.387396
279 1 -0.031303125 -0.00261666666667 -0.012403125 0.439094
280 1 -0.031303125 -0.00261666666667 -0.011221875 0.467966
281 1 -0.031303125 -0.00261666666667 -0.010040625 0.47893
282 1 -0.031303125 -0.00261666666667 -0.008859375 0.514477
283 1 -0.031303125 -0.00261666666667 -0.007678125 0.499409
284 1 -0.031303125 -0.00261666666667 -0.006496875 0.541998
285 1 -0.031303125 -0.00261666666667 -0.005315625 0.513045
286 1 -0.031303125 -0.00261666666667 -0.004134375 0.555915
287 1 -0.031303125 -0.00261666666667 -0.002953125 0.518469
288 1 -0.031303125 -0.00261666666667 -0.001771875 0.566452
289 1 -0.031303125 -0.00261666666667 -0.000590625 0.526461
290 1 -0.031303125 -0.00261666666667 0.000590625 0.574081
291 1 -0.031303125 -0.00261666666667 0.001771875 0.529824
292 1 -0.031303125 -0.00261666666667 0.002953125 0.579163
293 1 -0.031303125 -0.00261666666667 0.004134375 0.527307
294 1 -0.031303125 -0.00261666666667 0.005315625 0.56847
295 1 -0.031303125 -0.00261666666667 0.006496875 0.508115
296 1 -0.031303125 -0.00261666666667 0.007678125 0.531662
297 1 -0.031303125 -0.00261666666667 0.008859375 0.465195
298 1 -0.031303125 -0.00261666666667 0.010040625 0.460012
299 1 -0.031303125 -0.00261666666667 0.011221875 0.398437
300 1 -0.031303125 -0.00261666666667 0.012403125 0.359063
301 1 -0.031303125 -0.00261666666667 0.013584375 0.313345
302 1 -0.031303125 -0.00261666666667 0.014765625 0.247439
303 1 -0.031303125 -0.00261666666667 0.015946875 0.226663
304 1 -0.031303125 -0.00261666666667 0.017128125 0.156068
305 1 -0.031303125 -0.00261666666667 0.018309375 0.161679
306 1 -0.031303125 -0.00261666666667 0.019490625 0.0973909
307 1 -0.031303125 -0.00125 -0.019490625 0.205065
308 1 -0.031303125 -0.00125 -0.018309375 0.174603
309 1 -0.031303125 -0.00125 -0.017128125 0.28582
310 1 -0.031303125 -0.00125 -0.015946875 0.281299
311 1 -0.031303125 -0.00125 -0.014765625 0.372623
312 1 -0.031303125 -0.00125 -0.013584375 0.387396
313 1 -0.031303125 -0.00125 -0.012403125 0.439094
314 1 -0.031303125 -0.00125 -0.011221875 0.467966
315 1 -0.031303125 -0.00125 -0.010040625 0.47893
316 1 -0.031303125 -0.00125 -0.008859375 0.514477
317 1 -0.031303125 -0.00125 -0.007678125 0.499409
318 1 -0.031303125 -0.00125 -0.006496875 0.541998
319 1 -0.031303125 -0.00125 -0.005315625 0.513045
320 1 -0.031303125 -0.00125 -0.004134375 0.555915
321 1 -0.031303125 -0.00125 -0.002953125 0.518469
322 1 -0.031303125 -0.00125 -0.001771875 0.566452
323 1 -0.031303125 -0.00125 -0.000590625 0.526461
324 1 -0.031303125 -0.00125 0.000590625 0.574081
325 1 -0.031303125 -0.00125 0.001771875 0.529824
326 1 -0.031303125 -0.00125 0.002953125 0.579163
327 1 -0.031303125 -0.00125 0.004134375 0.527307
328 1 -0.031303125 -0.00125 0.005315625 0.56847
329 1 -0.031303125 -0.00125 0.006496875 0.508115
330 1 -0.031303125 -0.00125 0.007678125 0.531662
331 1 -0.031303125 -0.00125 0.008859375 0.465195
332 1 -0.031303125 -0.00125 0.010040625 0.460012
333 1 -0.031303125 -0.00125 0.011221875 0.398437
334 1 -0.031303125 -0.00125 0.012403125 0.359063
335 1 -0.031303125 -0.00125 0.013584375 0.313345
336 1 -0.031303125 -0.00125 0.014765625 0.247439
337 1 -0.031303125 -0.00125 0.015946875 0.226663
338 1 -0.031303125 -0.00125 0.017128125 0.156068
339 1 -0.031303125 -0.00125 0.018309375 0.161679
340 1 -0.031303125 -0.00125 0.019490625 0.0973909
341 1 -0.031303125 0.000116666666667 -0.019490625 0.205065
342 1 -0.031303125 0.000116666666667 -0.018309375 0.174603
343 1 -0.031303125 0.000116666666667 -0.017128125 0.28582
344 1 -0.031303125 0.000116666666667 -0.015946875 0.281299
345 1 -0.031303125 0.000116666666667 -0.014765625 0.372623
346 1 -0.031303125 0.000116666666667 -0.013584375 0.387396
347 1 -0.031303125 0.000116666666667 -0.012403125 0.439094
348 1 -0.031303125 0.000116666666667 -0.011221875 0.467966
349 1 -0.031303125 0.000116666666667 -0.010040625 0.47893
350 1 -0.031303125 0.000116666666667 -0.008859375 0.514477
351 1 -0.031303125 0.000116666666667 -0.007678125 0.499409
352 1 -0.031303125 0.000116666666667 -0.006496875 0.541998
353 1 -0.031303125 0.000116666666667 -0.005315625 0.513045
354 1 -0.031303125 0.000116666666667 -0.004134375 0.555915
355 1 -0.031303125 0.000116666666667 -0.002953125 0.518469
356 1 -0.031303125 0.000116666666667 -0.001771875 0.566452
357 1 -0.031303125 0.000116666666667 -0.000590625 0.526461
358 1 -0.031303125 0.000116666666667 0.000590625 0.574081
359 1 -0.031303125 0.000116666666667 0.001771875 0.529824
360 1 -0.031303125 0.000116666666667 0.002953125 0.579163
361 1 -0.031303125 0.000116666666667 0.004134375 0.527307
362 1 -0.031303125 0.000116666666667 0.005315625 0.56847
363 1 -0.031303125 0.000116666666667 0.006496875 0.508115
364 1 -0.031303125 0.000116666666667 0.007678125 0.531662
365 1 -0.031303125 0.000116666666667 0.008859375 0.465195
366 1 -0.031303125 0.000116666666667 0.010040625 0.460012
367 1 -0.031303125 0.000116666666667 0.011221875 0.398437
368 1 -0.031303125 0.000116666666667 0.012403125 0.359063
369 1 -0.031303125 0.000116666666667 0.013584375 0.313345
370 1 -0.031303125 0.000116666666667 0.014765625 0.247439
371 1 -0.031303125 0.000116666666667 0.015946875 0.226663
372 1 -0.031303125 0.000116666666667 0.017128125 0.156068
373 1 -0.031303125 0.000116666666667 0.018309375 0.161679
374 1 -0.031303125 0.000116666666667 0.019490625 0.0973909
375 1 -0.030121875 -0.00261666666667 -0.020671875 0.143796
376 1 -0.030121875 -0.00261666666667 -0.019490625 0.213203
377 1 -0.030121875 -0.00261666666667 -0.018309375 0.247111
378 1 -0.030121875 -0.00261666666667 -0.017128125 0.316298
379 1 -0.030121875 -0.00261666666667 -0.015946875 0.367048
380 1 -0.030121875 -0.00261666666667 -0.014765625 0.403742
381 1 -0.030121875 -0.00261666666667 -0.013584375 0.464913
382 1 -0.030121875 -0.00261666666667 -0.012403125 0.458163
383 1 -0.030121875 -0.00261666666667 -0.011221875 0.518255
384 1 -0.030121875 -0.00261666666667 -0.010040625 0.483248
385 1 -0.030121875 -0.00261666666667 -0.008859375 0.543767
386 1 -0.030121875 -0.00261666666667 -0.007678125 0.496849
387 1 -0.030121875 -0.00261666666667 -0.006496875 0.553073
388 1 -0.030121875 -0.00261666666667 -0.005315625 0.50284
389 1 -0.030121875 -0.00261666666667 -0.004134375 0.557634
390 1 -0.030121875 -0.00261666666667 -0.002953125 0.50667
391 1 -0.030121875 -0.00261666666667 -0.001771875 0.564574
392 1 -0.030121875 -0.00261666666667 -0.000590625 0.511812
393 1 -0.030121875 -0.00261666666667 0.000590625 0.575938
394 1 -0.030121875 -0.00261666666667 0.001771875 0.515013
395 1 -0.030121875 -0.00261666666667 0.002953125 0.587975
396 1 -0.030121875 -0.00261666666667 0.004134375 0.507445
397 1 -0.030121875 -0.00261666666667 0.005315625 0.596623
398 1 -0.030121875 -0.00261666666667 0.006496875 0.487863
399 1 -0.030121875 -0.00261666666667 0.007678125 0.583158
400 1 -0.030121875 -0.00261666666667 0.008859375 0.446195
401 1 -0.030121875 -0.00261666666667 0.010040625 0.545489
402 1 -0.030121875 -0.00261666666667 0.011221875 0.388444
403 1 -0.030121875 -0.00261666666667 0.012403125 0.462519
404 1 -0.030121875 -0.00261666666667 0.013584375 0.301015
405 1 -0.030121875 -0.00261666666667 0.014765625 0.331635
406 1 -0.030121875 -0.00261666666667 0.015946875 0.205229
407 1 -0.030121875 -0.00261666666667 0.017128125 0.210867
408 1 -0.030121875 -0.00261666666667 0.018309375 0.136881
409 1 -0.030121875 -0.00261666666667 0.019490625 0.129829
410 1 -0.030121875 -0.00261666666667 0.020671875 0.096815
411 1 -0.030121875 -0.00125 -0.020671875 0.143796
412 1 -0.030121875 -0.00125 -0.019490625 0.213203
413 1 -0.030121875 -0.00125 -0.018309375 0.247111
414 1 -0.030121875 -0.00125 -0.017128125 0.316298
415 1 -0.030121875 -0.00125 -0.015946875 0.367048
416 1 -0.030121875 -0.00125 -0.014765625 0.403742
417 1 -0.030121875 -0.00125 -0.013584375 0.464913
418 1 -0.030121875 -0.00125 -0.012403125 0.458163
419 1 -0.030121875 -0.00125 -0.011221875 0.518255
420 1 -0.030121875 -0.00125 -0.010040625 0.483248
421 1 -0.030121875 -0.00125 -0.008859375 0.543767
422 1 -0.030121875 -0.00125 -0.007678125 0.496849
423 1 -0.030121875 -0.00125 -0.006496875 0.553073
424 1 -0.030121875 -0.00125 -0.005315625 0.50284
425 1 -0.030121875 -0.00125 -0.004134375 0.557634
426 1 -0.030121875 -0.00125 -0.002953125 0.50667
427 1 -0.030121875 -0.00125 -0.001771875 0.564574
428 1 -0.030121875 -0.00125 -0.000590625 0.511812
429 1 -0.030121875 -0.00125 0.000590625 0.575938
430 1 -0.030121875 -0.00125 0.001771875 0.515013
431 1 -0.030121875 -0.00125 0.002953125 0.587975
432 1 -0.030121875 -0.00125 0.004134375 0.507445
433 1 -0.030121875 -0.00125 0.005315625 0.596623
434 1 -0.030121875 -0.00125 0.006496875 0.487863
435 1 -0.030121875 -0.00125 0.007678125 0.583158
436 1 -0.030121875 -0.00125 0.008859375 0.446195
437 1 -0.030121875 -0.00125 0.010040625 0.545489
438 1 -0.030121875 -0.00125 0.011221875 0.388444
439 1 -0.030121875 -0.00125 0.012403125 0.462519
440 1 -0.030121875 -0.00125 0.013584375 0.301015
441 1 -0.030121875 -0.00125 0.014765625 0.331635
442 1 -0.030121875 -0.00125 0.015946875 0.205229
443 1 -0.030121875 -0.00125 0.017128125 0.210867
444 1 -0.030121875 -0.00125 0.018309375 0.136881
445 1 -0.030121875 -0.00125 0.019490625 0.129829
446 1 -0.030121875 -0.00125 0.020671875 0.096815
447 1 -0.030121875 0.000116666666667 -0.020671875 0.143796
448 1 -0.030121875 0.000116666666667 -0.019490625 0.213203
449 1 -0.030121875 0.000116666666667 -0.018309375 0.247111
450 1 -0.030121875 0.000116666666667 -0.017128125 0.316298
451 1 -0.030121875 0.000116666666667 -0.015946875 0.367048
452 1 -0.030121875 0.000116666666667 -0.014765625 0.403742
453 1 -0.030121875 0.000116666666667 -0.013584375 0.464913
454 1 -0.030121875 0.000116666666667 -0.012403125 0.458163
455 1 -0.030121875 0.000116666666667 -0.011221875 0.518255
456 1 -0.030121875 0.000116666666667 -0.010040625 0.483248
457 1 -0.030121875 0.000116666666667 -0.008859375 0.543767
458 1 -0.030121875 0.000116666666667 -0.007678125 0.496849
459 1 -0.030121875 0.000116666666667 -0.006496875 0.553073
460 1 -0.030121875 0.000116666666667 -0.005315625 0.50284
461 1 -0.030121875 0.000116666666667 -0.004134375 0.557634
462 1 -0.030121875 0.000116666666667 -0.002953125 0.50667
463 1 -0.030121875 0.000116666666667 -0.001771875 0.564574
464 1 -0.030121875 0.000116666666667 -0.000590625 0.511812
465 1 -0.030121875 0.000116666666667 0.000590625 0.575938
466 1 -0.030121875 0.000116666666667 0.001771875 0.515013
467 1 -0.030121875 0.000116666666667 0.002953125 0.587975
468 1 -0.030121875 0.000116666666667 0.004134375 0.507445
469 1 -0.030121875 0.000116666666667 0.005315625 0.596623
470 1 -0.030121875 0.000116666666667 0.006496875 0.487863
471 1 -0.030121875 0.000116666666667 0.007678125 0.583158
472 1 -0.030121875 0.000116666666667 0.008859375 0.446195
473 1 -0.030121875 0.000116666666667 0.010040625 0.545489
474 1 -0.030121875 0.000116666666667 0.011221875 0.388444
475 1 -0.030121875 0.000116666666667 0.012403125 0.462519
476 1 -0.030121875 0.000116666666667 0.013584375 0.301015
477 1 -0.030121875 0.000116666666667 0.014765625 0.331635
478 1 -0.030121875 0.000116666666667 0.015946875 0.205229
479 1 -0.030121875 0.000116666666667 0.017128125 0.210867
480 1 -0.030121875 0.000116666666667 0.018309375 0.136881
481 1 -0.030121875 0.000116666666667 0.019490625 0.129829
482 1 -0.030121875 0.000116666666667 0.020671875 0.096815
483 1 -0.028940625 -0.00261666666667 -0.021853125 0.245962
484 1 -0.028940625 -0.00261666666667 -0.020671875 0.227255
485 1 -0.028940625 -0.00261666666667 -0.019490625 0.352503
486 1 -0.028940625 -0.00261666666667 -0.018309375 0.371396
487 1 -0.028940625 -0.00261666666667 -0.017128125 0.456165
488 1 -0.028940625 -0.00261666666667 -0.015946875 0.505351
489 1 -0.028940625 -0.00261666666667 -0.014765625 0.524983
490 1 -0.028940625 -0.00261666666667 -0.013584375 0.565856
491 1 -0.028940625 -0.00261666666667 -0.012403125 0.549092
492 1 -0.028940625 -0.00261666666667 -0.011221875 0.583095
493 1 -0.028940625 -0.00261666666667 -0.010040625 0.560816
494 1 -0.028940625 -0.00261666666667 -0.008859375 0.587813
495 1 -0.028940625 -0.00261666666667 -0.007678125 0.562174
496 1 -0.028940625 -0.00261666666667 -0.006496875 0.590006
497 1 -0.028940625 -0.00261666666667 -0.005315625 0.564692
498 1 -0.028940625 -0.00261666666667 -0.004134375 0.59004
499 1 -0.028940625 -0.00261666666667 -0.002953125 0.56587
500 1 -0.028940625 -0.00261666666667 -0.001771875 0.594873
501 1 -0.028940625 -0.00261666666667 -0.000590625 0.572488
502 1 -0.028940625 -0.00261666666667 0.000590625 0.602295
503 1 -0.028940625 -0.00261666666667 0.001771875 0.577568
504 1 -0.028940625 -0.00261666666667 0.002953125 0.613149
505 1 -0.028940625 -0.00261666666667 0.004134375 0.580816
506 1 -0.028940625 -0.00261666666667 0.005315625 0.618904
507 1 -0.028940625 -0.00261666666667 0.006496875 0.575998
508 1 -0.028940625 -0.00261666666667 0.007678125 0.617659
509 1 -0.028940625 -0.00261666666667 0.008859375 0.560548
510 1 -0.028940625 -0.00261666666667 0.010040625 0.605865
511 1 -0.028940625 -0.00261666666667 0.011221875 0.528852
512 1 -0.028940625 -0.00261666666667 0.012403125 0.556856
513 1 -0.028940625 -0.00261666666667 0.013584375 0.462925
514 1 -0.028940625 -0.00261666666667 0.014765625 0.451039
515 1 -0.028940625 -0.00261666666667 0.015946875 0.363526
516 1 -0.028940625 -0.00261666666667 0.017128125 0.313258
517 1 -0.028940625 -0.00261666666667 0.018309375 0.263321
518 1 -0.028940625 -0.00261666666667 0.019490625 0.202018
519 1 -0.028940625 -0.00261666666667 0.020671875 0.19341
520 1 -0.028940625 -0.00261666666667 0.021853125 0.13239
521 1 -0.028940625 -0.00125 -0.021853125 0.245962
522 1 -0.028940625 -0.00125 -0.020671875 0.227255
523 1 -0.028940625 -0.00125 -0.019490625 0.352503
524 1 -0.028940625 -0.00125 -0.018309375 0.371396
525 1 -0.028940625 -0.00125 -0.017128125 0.456165
526 1 -0.028940625 -0.00125 -0.015946875 0.505351
527 1 -0.028940625 -0.00125 -0.014765625 0.524983
528 1 -0.028940625 -0.00125 -0.013584375 0.565856
529 1 -0.028940625 -0.00125 -0.012403125 0.549092
530 1 -0.028940625 -0.00125 -0.011221875 0.583095
531 1 -0.028940625 -0.00125 -0.010040625 0.560816
532 1 -0.028940625 -0.00125 -0.008859375 0.587813
533 1 -0.028940625 -0.00125 -0.007678125 0.562174
534 1 -0.028940625 -0.00125 -0.006496875 0.590006
535 1 -0.028940625 -0.00125 -0.005315625 0.564692
536 1 -0.028940625 -0.00125 -0.004134375 0.59004
537 1 -0.028940625 -0.00125 -0.002953125 0.56587