ITEM: TIMESTEP
0
ITEM: NUMBER OF ATOMS
9240
ITEM: BOX BOUNDS ss ss ss
-3.7007399999999996e-02 3.7007399999999996e-02
-2.0002499999999999e-03 2.5000000000000004e-07
-3.7007399999999996e-02 3.7007399999999996e-02
ITEM: ATOMS id type x y z c_1
0 1 -0.037209375 -0.00261666666667 -0.000590625 0.341219
1 1 -0.037209375 -0.00125 -0.000590625 0.341219
2 1 -0.037209375 0.000116666666667 -0.000590625 0.341219
3 1 -0.036028125 -0.00261666666667 -0.007678125 0.382278
4 1 -0.036028125 -0.00261666666667 -0.006496875 0.26656
5 1 -0.036028125 -0.00261666666667 -0.005315625 0.40433
6 1 -0.036028125 -0.00261666666667 -0.004134375 0.282224
7 1 -0.036028125 -0.00261666666667 -0.002953125 0.418391
8 1 -0.036028125 -0.00261666666667 -0.001771875 0.295117
9 1 -0.036028125 -0.00261666666667 -0.000590625 0.428028
10 1 -0.036028125 -0.00261666666667 0.000590625 0.303779
11 1 -0.036028125 -0.00261666666667 0.001771875 0.430398
12 1 -0.036028125 -0.00261666666667 0.002953125 0.307498
13 1 -0.036028125 -0.00261666666667 0.004134375 0.424771
14 1 -0.036028125 -0.00261666666667 0.005315625 0.30152
15 1 -0.036028125 -0.00261666666667 0.006496875 0.40852
16 1 -0.036028125 -0.00261666666667 0.007678125 0.288567
17 1 -0.036028125 -0.00125 -0.007678125 0.382278
18 1 -0.036028125 -0.00125 -0.006496875 0.26656
19 1 -0.036028125 -0.00125 -0.005315625 0.40433
20 1 -0.036028125 -0.00125 -0.004134375 0.282224
21 1 -0.036028125 -0.00125 -0.002953125 0.418391
22 1 -0.036028125 -0.00125 -0.001771875 0.295117
23 1 -0.036028125 -0.00125 -0.000590625 0.428028
24 1 -0.036028125 -0.00125 0.000590625 0.303779
25 1 -0.036028125 -0.00125 0.001771875 0.430398
26 1 -0.036028125 -0.00125 0.002953125 0.307498
27 1 -0.036028125 -0.00125 0.004134375 0.424771
28 1 -0.036028125 -0.00125 0.005315625 0.30152
29 1 -0.036028125 -0.00125 0.006496875 0.40852
30 1 -0.036028125 -0.00125 0.007678125 0.288567
31 1 -0.036028125 0.000116666666667 -0.007678125 0.382278
32 1 -0.036028125 0.000116666666667 -0.006496875 0.26656
33 1 -0.036028125 0.000116666666667 -0.005315625 0.40433
34 1 -0.036028125 0.000116666666667 -0.004134375 0.282224
35 1 -0.036028125 0.000116666666667 -0.002953125 0.418391
36 1 -0.036028125 0.000116666666667 -0.001771875 0.295117
37 1 -0.036028125 0.000116666666667 -0.000590625 0.428028
38 1 -0.036028125 0.000116666666667 0.000590625 0.303779
39 1 -0.036028125 0.000116666666667 0.001771875 0.430398
40 1 -0.036028125 0.000116666666667 0.002953125 0.307498
41 1 -0.036028125 0.000116666666667 0.004134375 0.424771
42 1 -0.036028125 0.000116666666667 0.005315625 0.30152
43 1 -0.036028125 0.000116666666667 0.006496875 0.40852
44 1 -0.036028125 0.000116666666667 0.007678125 0.288567
45 1 -0.034846875 -0.00261666666667 -0.011221875 0.174428
46 1 -0.034846875 -0.00261666666667 -0.010040625 0.24896
47 1 -0.034846875 -0.00261666666667 -0.008859375 0.205197
48 1 -0.034846875 -0.00261666666667 -0.007678125 0.268474
49 1 -0.034846875 -0.00261666666667 -0.006496875 0.234878
50 1 -0.034846875 -0.00261666666667 -0.005315625 0.283953
51 1 -0.034846875 -0.00261666666667 -0.004134375 0.262546
52 1 -0.034846875 -0.00261666666667 -0.002953125 0.29685
53 1 -0.034846875 -0.00261666666667 -0.001771875 0.284364
54 1 -0.034846875 -0.00261666666667 -0.000590625 0.304852
55 1 -0.034846875 -0.00261666666667 0.000590625 0.298842
56 1 -0.034846875 -0.00261666666667 0.001771875 0.308713
57 1 -0.034846875 -0.00261666666667 0.002953125 0.304435
58 1 -0.034846875 -0.00261666666667 0.004134375 0.301522
59 1 -0.034846875 -0.00261666666667 0.005315625 0.297126
60 1 -0.034846875 -0.00261666666667 0.006496875 0.287177
61 1 -0.034846875 -0.00261666666667 0.007678125 0.27696
62 1 -0.034846875 -0.00261666666667 0.008859375 0.268365
63 1 -0.034846875 -0.00261666666667 0.010040625 0.250479
64 1 -0.034846875 -0.00261666666667 0.011221875 0.249365
65 1 -0.034846875 -0.00125 -0.011221875 0.174428
66 1 -0.034846875 -0.00125 -0.010040625 0.24896
67 1 -0.034846875 -0.00125 -0.008859375 0.205197
68 1 -0.034846875 -0.00125 -0.007678125 0.268474
69 1 -0.034846875 -0.00125 -0.006496875 0.234878
70 1 -0.034846875 -0.00125 -0.005315625 0.283953
71 1 -0.034846875 -0.00125 -0.004134375 0.262546
72 1 -0.034846875 -0.00125 -0.002953125 0.29685
73 1 -0.034846875 -0.00125 -0.001771875 0.284364
74 1 -0.034846875 -0.00125 -0.000590625 0.304852
75 1 -0.034846875 -0.00125 0.000590625 0.298842
76 1 -0.034846875 -0.00125 0.001771875 0.308713
77 1 -0.034846875 -0.00125 0.002953125 0.304435
78 1 -0.034846875 -0.00125 0.004134375 0.301522
79 1 -0.034846875 -0.00125 0.005315625 0.297126
80 1 -0.034846875 -0.00125 0.006496875 0.287177
81 1 -0.034846875 -0.00125 0.007678125 0.27696
82 1 -0.034846875 -0.00125 0.008859375 0.268365
83 1 -0.034846875 -0.00125 0.010040625 0.250479
84 1 -0.034846875 -0.00125 0.011221875 0.249365
85 1 -0.034846875 0.000116666666667 -0.011221875 0.174428
86 1 -0.034846875 0.000116666666667 -0.010040625 0.24896
87 1 -0.034846875 0.000116666666667 -0.008859375 0.205197
88 1 -0.034846875 0.000116666666667 -0.007678125 0.268474
89 1 -0.034846875 0.000116666666667 -0.006496875 0.234878
90 1 -0.034846875 0.000116666666667 -0.005315625 0.283953
91 1 -0.034846875 0.000116666666667 -0.004134375 0.262546
92 1 -0.034846875 0.000116666666667 -0.002953125 0.29685
93 1 -0.034846875 0.000116666666667 -0.001771875 0.284364
94 1 -0.034846875 0.000116666666667 -0.000590625 0.304852
95 1 -0.034846875 0.000116666666667 0.000590625 0.298842
96 1 -0.034846875 0.000116666666667 0.001771875 0.308713
97 1 -0.034846875 0.000116666666667 0.002953125 0.304435
98 1 -0.034846875 0.000116666666667 0.004134375 0.301522
99 1 -0.034846875 0.000116666666667 0.005315625 0.297126
100 1 -0.034846875 0.000116666666667 0.006496875 0.287177
101 1 -0.034846875 0.000116666666667 0.007678125 0.27696
102 1 -0.034846875 0.000116666666667 0.008859375 0.268365
103 1 -0.034846875 0.000116666666667 0.010040625 0.250479
104 1 -0.034846875 0.000116666666667 0.011221875 0.249365
105 1 -0.033665625 -0.00261666666667 -0.013584375 0.193988
106 1 -0.033665625 -0.00261666666667 -0.012403125 0.323667
107 1 -0.033665625 -0.00261666666667 -0.011221875 0.231931
108 1 -0.033665625 -0.00261666666667 -0.010040625 0.367583
109 1 -0.033665625 -0.00261666666667 -0.008859375 0.268909
110 1 -0.033665625 -0.00261666666667 -0.007678125 0.403678
111 1 -0.033665625 -0.00261666666667 -0.006496875 0.304635
112 1 -0.033665625 -0.00261666666667 -0.005315625 0.434972
113 1 -0.033665625 -0.00261666666667 -0.004134375 0.33217
114 1 -0.033665625 -0.00261666666667 -0.002953125 0.4544
115 1 -0.033665625 -0.00261666666667 -0.001771875 0.35362
116 1 -0.033665625 -0.00261666666667 -0.000590625 0.467563
117 1 -0.033665625 -0.00261666666667 0.000590625 0.36606
118 1 -0.033665625 -0.00261666666667 0.001771875 0.470094
119 1 -0.033665625 -0.00261666666667 0.002953125 0.3692
120 1 -0.033665625 -0.00261666666667 0.004134375 0.461611
121 1 -0.033665625 -0.00261666666667 0.005315625 0.356117
122 1 -0.033665625 -0.00261666666667 0.006496875 0.438346
123 1 -0.033665625 -0.00261666666667 0.007678125 0.331932
124 1 -0.033665625 -0.00261666666667 0.008859375 0.40851
125 1 -0.033665625 -0.00261666666667 0.010040625 0.30151
126 1 -0.033665625 -0.00261666666667 0.011221875 0.372251
127 1 -0.033665625 -0.00261666666667 0.012403125 0.268579
128 1 -0.033665625 -0.00261666666667 0.013584375 0.336287
129 1 -0.033665625 -0.00125 -0.013584375 0.193988
130 1 -0.033665625 -0.00125 -0.012403125 0.323667
131 1 -0.033665625 -0.00125 -0.011221875 0.231931
132 1 -0.033665625 -0.00125 -0.010040625 0.367583
133 1 -0.033665625 -0.00125 -0.008859375 0.268909
134 1 -0.033665625 -0.00125 -0.007678125 0.403678
135 1 -0.033665625 -0.00125 -0.006496875 0.304635
136 1 -0.033665625 -0.00125 -0.005315625 0.434972
137 1 -0.033665625 -0.00125 -0.004134375 0.33217
138 1 -0.033665625 -0.00125 -0.002953125 0.4544
139 1 -0.033665625 -0.00125 -0.001771875 0.35362
140 1 -0.033665625 -0.00125 -0.000590625 0.467563
141 1 -0.033665625 -0.00125 0.000590625 0.36606
142 1 -0.033665625 -0.00125 0.001771875 0.470094
143 1 -0.033665625 -0.00125 0.002953125 0.3692
144 1 -0.033665625 -0.00125 0.004134375 0.461611
145 1 -0.033665625 -0.00125 0.005315625 0.356117
146 1 -0.033665625 -0.00125 0.006496875 0.438346
147 1 -0.033665625 -0.00125 0.007678125 0.331932
148 1 -0.033665625 -0.00125 0.008859375 0.40851
149 1 -0.033665625 -0.00125 0.010040625 0.30151
150 1 -0.033665625 -0.00125 0.011221875 0.372251
151 1 -0.033665625 -0.00125 0.012403125 0.268579
152 1 -0.033665625 -0.00125 0.013584375 0.336287
153 1 -0.033665625 0.000116666666667 -0.013584375 0.193988
154 1 -0.033665625 0.000116666666667 -0.012403125 0.323667
155 1 -0.033665625 0.000116666666667 -0.011221875 0.231931
156 1 -0.033665625 0.000116666666667 -0.010040625 0.367583
157 1 -0.033665625 0.000116666666667 -0.008859375 0.268909
158 1 -0.033665625 0.000116666666667 -0.007678125 0.403678
159 1 -0.033665625 0.000116666666667 -0.006496875 0.304635
160 1 -0.033665625 0.000116666666667 -0.005315625 0.434972
161 1 -0.033665625 0.000116666666667 -0.004134375 0.33217
162 1 -0.033665625 0.000116666666667 -0.002953125 0.4544
163 1 -0.033665625 0.000116666666667 -0.001771875 0.35362
164 1 -0.033665625 0.000116666666667 -0.000590625 0.467563
165 1 -0.033665625 0.000116666666667 0.000590625 0.36606
166 1 -0.033665625 0.000116666666667 0.001771875 0.470094
167 1 -0.033665625 0.000116666666667 0.002953125 0.3692
168 1 -0.033665625 0.000116666666667 0.004134375 0.461611
169 1 -0.033665625 0.000116666666667 0.005315625 0.356117
170 1 -0.033665625 0.000116666666667 0.006496875 0.438346
171 1 -0.033665625 0.000116666666667 0.007678125 0.331932
172 1 -0.033665625 0.000116666666667 0.008859375 0.40851
173 1 -0.033665625 0.000116666666667 0.010040625 0.30151
174 1 -0.033665625 0.000116666666667 0.011221875 0.372251
175 1 -0.033665625 0.000116666666667 0.012403125 0.268579
176 1 -0.033665625 0.000116666666667 0.013584375 0.336287
177 1 -0.032484375 -0.00261666666667 -0.018309375 0.0827142
178 1 -0.032484375 -0.00261666666667 -0.017128125 0.17086
179 1 -0.032484375 -0.00261666666667 -0.015946875 0.107431
180 1 -0.032484375 -0.00261666666667 -0.014765625 0.202083
181 1 -0.032484375 -0.00261666666667 -0.013584375 0.146031
182 1 -0.032484375 -0.00261666666667 -0.012403125 0.239063
183 1 -0.032484375 -0.00261666666667 -0.011221875 0.193089
184 1 -0.032484375 -0.00261666666667 -0.010040625 0.274029
185 1 -0.032484375 -0.00261666666667 -0.008859375 0.241078
186 1 -0.032484375 -0.00261666666667 -0.007678125 0.305442
187 1 -0.032484375 -0.00261666666667 -0.006496875 0.287383
188 1 -0.032484375 -0.00261666666667 -0.005315625 0.32975
189 1 -0.032484375 -0.00261666666667 -0.004134375 0.328264
190 1 -0.032484375 -0.00261666666667 -0.002953125 0.349879
191 1 -0.032484375 -0.00261666666667 -0.001771875 0.356938
192 1 -0.032484375 -0.00261666666667 -0.000590625 0.360351
193 1 -0.032484375 -0.00261666666667 0.000590625 0.37577
194 1 -0.032484375 -0.00261666666667 0.001771875 0.363794
195 1 -0.032484375 -0.00261666666667 0.002953125 0.381948
196 1 -0.032484375 -0.00261666666667 0.004134375 0.350596
197 1 -0.032484375 -0.00261666666667 0.005315625 0.370937
198 1 -0.032484375 -0.00261666666667 0.006496875 0.326268
199 1 -0.032484375 -0.00261666666667 0.007678125 0.339013
200 1 -0.032484375 -0.00261666666667 0.008859375 0.295176
201 1 -0.032484375 -0.00261666666667 0.010040625 0.29439
202 1 -0.032484375 -0.00261666666667 0.011221875 0.264621
203 1 -0.032484375 -0.00261666666667 0.012403125 0.248143
204 1 -0.032484375 -0.00261666666667 0.013584375 0.235918
205 1 -0.032484375 -0.00261666666667 0.014765625 0.205554
206 1 -0.032484375 -0.00261666666667 0.015946875 0.211157
207 1 -0.032484375 -0.00261666666667 0.017128125 0.172482
208 1 -0.032484375 -0.00261666666667 0.018309375 0.194077
209 1 -0.032484375 -0.00125 -0.018309375 0.0827142
210 1 -0.032484375 -0.00125 -0.017128125 0.17086
211 1 -0.032484375 -0.00125 -0.015946875 0.107431
212 1 -0.032484375 -0.00125 -0.014765625 0.202083
213 1 -0.032484375 -0.00125 -0.013584375 0.146031
214 1 -0.032484375 -0.00125 -0.012403125 0.239063
215 1 -0.032484375 -0.00125 -0.011221875 0.193089
216 1 -0.032484375 -0.00125 -0.010040625 0.274029
217 1 -0.032484375 -0.00125 -0.008859375 0.241078
218 1 -0.032484375 -0.00125 -0.007678125 0.305442
219 1 -0.032484375 -0.00125 -0.006496875 0.287383
220 1 -0.032484375 -0.00125 -0.005315625 0.32975
221 1 -0.032484375 -0.00125 -0.004134375 0.328264
222 1 -0.032484375 -0.00125 -0.002953125 0.349879
223 1 -0.032484375 -0.00125 -0.001771875 0.356938
224 1 -0.032484375 -0.00125 -0.000590625 0.360351
225 1 -0.032484375 -0.00125 0.000590625 0.37577
226 1 -0.032484375 -0.00125 0.001771875 0.363794
227 1 -0.032484375 -0.00125 0.002953125 0.381948
228 1 -0.032484375 -0.00125 0.004134375 0.350596
229 1 -0.032484375 -0.00125 0.005315625 0.370937
230 1 -0.032484375 -0.00125 0.006496875 0.326268
231 1 -0.032484375 -0.00125 0.007678125 0.339013
232 1 -0.032484375 -0.00125 0.008859375 0.295176
233 1 -0.032484375 -0.00125 0.010040625 0.29439
234 1 -0.032484375 -0.00125 0.011221875 0.264621
235 1 -0.032484375 -0.00125 0.012403125 0.248143
236 1 -0.032484375 -0.00125 0.013584375 0.235918
237 1 -0.032484375 -0.00125 0.014765625 0.205554
238 1 -0.032484375 -0.00125 0.015946875 0.211157
239 1 -0.032484375 -0.00125 0.017128125 0.172482
240 1 -0.032484375 -0.00125 0.018309375 0.194077
241 1 -0.032484375 0.000116666666667 -0.018309375 0.0827142
242 1 -0.032484375 0.000116666666667 -0.017128125 0.17086
243 1 -0.032484375 0.000116666666667 -0.015946875 0.107431
244 1 -0.032484375 0.000116666666667 -0.014765625 0.202083
245 1 -0.032484375 0.000116666666667 -0.013584375 0.146031
246 1 -0.032484375 0.000116666666667 -0.012403125 0.239063
247 1 -0.032484375 0.000116666666667 -0.011221875 0.193089
248 1 -0.032484375 0.000116666666667 -0.010040625 0.274029
249 1 -0.032484375 0.000116666666667 -0.008859375 0.241078
250 1 -0.032484375 0.000116666666667 -0.007678125 0.305442
251 1 -0.032484375 0.000116666666667 -0.006496875 0.287383
252 1 -0.032484375 0.000116666666667 -0.005315625 0.32975
253 1 -0.032484375 0.000116666666667 -0.004134375 0.328264
254 1 -0.032484375 0.000116666666667 -0.002953125 0.349879
255 1 -0.032484375 0.000116666666667 -0.001771875 0.356938
256 1 -0.032484375 0.000116666666667 -0.000590625 0.360351
257 1 -0.032484375 0.000116666666667 0.000590625 0.37577
258 1 -0.032484375 0.000116666666667 0.001771875 0.363794
259 1 -0.032484375 0.000116666666667 0.002953125 0.381948
260 1 -0.032484375 0.000116666666667 0.004134375 0.350596
261 1 -0.032484375 0.000116666666667 0.005315625 0.370937
262 1 -0.032484375 0.000116666666667 0.006496875 0.326268
263 1 -0.032484375 0.000116666666667 0.007678125 0.339013
264 1 -0.032484375 0.000116666666667 0.008859375 0.295176
265 1 -0.032484375 0.000116666666667 0.010040625 0.29439
266 1 -0.032484375 0.000116666666667 0.011221875 0.264621
267 1 -0.032484375 0.000116666666667 0.012403125 0.248143
268 1 -0.032484375 0.000116666666667 0.013584375 0.235918
269 1 -0.032484375 0.000116666666667 0.014765625 0.205554
270 1 -0.032484375 0.000116666666667 0.015946875 0.211157
271 1 -0.032484375 0.000116666666667 0.017128125 0.172482
272 1 -0.032484375 0.000116666666667 0.018309375 0.194077
273 1 -0.031303125 -0.00261666666667 -0.019490625 0.21483
274 1 -0.031303125 -0.00261666666667 -0.018309375 0.147897
275 1 -0.031303125 -0.00261666666667 -0.017128125 0.261757
276 1 -0.031303125 -0.00261666666667 -0.015946875 0.19201
277 1 -0.031303125 -0.00261666666667 -0.014765625 0.320263
278 1 -0.031303125 -0.00261666666667 -0.013584375 0.244475
279 1 -0.031303125 -0.00261666666667 -0.012403125 0.379181
280 1 -0.031303125 -0.00261666666667 -0.011221875 0.302239
281 1 -0.031303125 -0.00261666666667 -0.010040625 0.435303
282 1 -0.031303125 -0.00261666666667 -0.008859375 0.354022
283 1 -0.031303125 -0.00261666666667 -0.007678125 0.474398
284 1 -0.031303125 -0.00261666666667 -0.006496875 0.398978
285 1 -0.031303125 -0.00261666666667 -0.005315625 0.506418
286 1 -0.031303125 -0.00261666666667 -0.004134375 0.428931
287 1 -0.031303125 -0.00261666666667 -0.002953125 0.525065
288 1 -0.031303125 -0.00261666666667 -0.001771875 0.450242
289 1 -0.031303125 -0.00261666666667 -0.000590625 0.53605
290 1 -0.031303125 -0.00261666666667 0.000590625 0.460124
291 1 -0.031303125 -0.00261666666667 0.001771875 0.535331
292 1 -0.031303125 -0.00261666666667 0.002953125 0.461482
293 1 -0.031303125 -0.00261666666667 0.004134375 0.522413
294 1 -0.031303125 -0.00261666666667 0.005315625 0.44634
295 1 -0.031303125 -0.00261666666667 0.006496875 0.495729
296 1 -0.031303125 -0.00261666666667 0.007678125 0.415611
297 1 -0.031303125 -0.00261666666667 0.008859375 0.460822
298 1 -0.031303125 -0.00261666666667 0.010040625 0.372839
299 1 -0.031303125 -0.00261666666667 0.011221875 0.415195
300 1 -0.031303125 -0.00261666666667 0.012403125 0.32331
301 1 -0.031303125 -0.00261666666667 0.013584375 0.368442
302 1 -0.031303125 -0.00261666666667 0.014765625 0.277736
303 1 -0.031303125 -0.00261666666667 0.015946875 0.325459
304 1 -0.031303125 -0.00261666666667 0.017128125 0.240205
305 1 -0.031303125 -0.00261666666667 0.018309375 0.291306
306 1 -0.031303125 -0.00261666666667 0.019490625 0.214342
307 1 -0.031303125 -0.00125 -0.019490625 0.21483
308 1 -0.031303125 -0.00125 -0.018309375 0.147897
309 1 -0.031303125 -0.00125 -0.017128125 0.261757
310 1 -0.031303125 -0.00125 -0.015946875 0.19201
311 1 -0.031303125 -0.00125 -0.014765625 0.320263
312 1 -0.031303125 -0.00125 -0.013584375 0.244475
313 1 -0.031303125 -0.00125 -0.012403125 0.379181
314 1 -0.031303125 -0.00125 -0.011221875 0.302239
315 1 -0.031303125 -0.00125 -0.010040625 0.435303
316 1 -0.031303125 -0.00125 -0.008859375 0.354022
317 1 -0.031303125 -0.00125 -0.007678125 0.474398
318 1 -0.031303125 -0.00125 -0.006496875 0.398978
319 1 -0.031303125 -0.00125 -0.005315625 0.506418
320 1 -0.031303125 -0.00125 -0.004134375 0.428931
321 1 -0.031303125 -0.00125 -0.002953125 0.525065
322 1 -0.031303125 -0.00125 -0.001771875 0.450242
323 1 -0.031303125 -0.00125 -0.000590625 0.53605
324 1 -0.031303125 -0.00125 0.000590625 0.460124
325 1 -0.031303125 -0.00125 0.001771875 0.535331
326 1 -0.031303125 -0.00125 0.002953125 0.461482
327 1 -0.031303125 -0.00125 0.004134375 0.522413
328 1 -0.031303125 -0.00125 0.005315625 0.44634
329 1 -0.031303125 -0.00125 0.006496875 0.495729
330 1 -0.031303125 -0.00125 0.007678125 0.415611
331 1 -0.031303125 -0.00125 0.008859375 0.460822
332 1 -0.031303125 -0.00125 0.010040625 0.372839
333 1 -0.031303125 -0.00125 0.011221875 0.415195
334 1 -0.031303125 -0.00125 0.012403125 0.32331
335 1 -0.031303125 -0.00125 0.013584375 0.368442
336 1 -0.031303125 -0.00125 0.014765625 0.277736
337 1 -0.031303125 -0.00125 0.015946875 0.325459
338 1 -0.031303125 -0.00125 0.017128125 0.240205
339 1 -0.031303125 -0.00125 0.018309375 0.291306
340 1 -0.031303125 -0.00125 0.019490625 0.214342
341 1 -0.031303125 0.000116666666667 -0.019490625 0.21483
342 1 -0.031303125 0.000116666666667 -0.018309375 0.147897
343 1 -0.031303125 0.000116666666667 -0.017128125 0.261757
344 1 -0.031303125 0.000116666666667 -0.015946875 0.19201
345 1 -0.031303125 0.000116666666667 -0.014765625 0.320263
346 1 -0.031303125 0.000116666666667 -0.013584375 0.244475
347 1 -0.031303125 0.000116666666667 -0.012403125 0.379181
348 1 -0.031303125 0.000116666666667 -0.011221875 0.302239
349 1 -0.031303125 0.000116666666667 -0.010040625 0.435303
350 1 -0.031303125 0.000116666666667 -0.008859375 0.354022
351 1 -0.031303125 0.000116666666667 -0.007678125 0.474398
352 1 -0.031303125 0.000116666666667 -0.006496875 0.398978
353 1 -0.031303125 0.000116666666667 -0.005315625 0.506418
354 1 -0.031303125 0.000116666666667 -0.004134375 0.428931
355 1 -0.031303125 0.000116666666667 -0.002953125 0.525065
356 1 -0.031303125 0.000116666666667 -0.001771875 0.450242
357 1 -0.031303125 0.000116666666667 -0.000590625 0.53605
358 1 -0.031303125 0.000116666666667 0.000590625 0.460124
359 1 -0.031303125 0.000116666666667 0.001771875 0.535331
360 1 -0.031303125 0.000116666666667 0.002953125 0.461482
361 1 -0.031303125 0.000116666666667 0.004134375 0.522413
362 1 -0.031303125 0.000116666666667 0.005315625 0.44634
363 1 -0.031303125 0.000116666666667 0.006496875 0.495729
364 1 -0.031303125 0.000116666666667 0.007678125 0.415611
365 1 -0.031303125 0.000116666666667 0.008859375 0.460822
366 1 -0.031303125 0.000116666666667 0.010040625 0.372839
367 1 -0.031303125 0.000116666666667 0.011221875 0.415195
368 1 -0.031303125 0.000116666666667 0.012403125 0.32331
369 1 -0.031303125 0.000116666666667 0.013584375 0.368442
370 1 -0.031303125 0.000116666666667 0.014765625 0.277736
371 1 -0.031303125 0.000116666666667 0.015946875 0.325459
372 1 -0.031303125 0.000116666666667 0.017128125 0.240205
373 1 -0.031303125 0.000116666666667 0.018309375 0.291306
374 1 -0.031303125 0.000116666666667 0.019490625 0.214342
375 1 -0.030121875 -0.00261666666667 -0.020671875 0.0814357
376 1 -0.030121875 -0.00261666666667 -0.019490625 0.172353
377 1 -0.030121875 -0.00261666666667 -0.018309375 0.108041
378 1 -0.030121875 -0.00261666666667 -0.017128125 0.21174
379 1 -0.030121875 -0.00261666666667 -0.015946875 0.155934
380 1 -0.030121875 -0.00261666666667 -0.014765625 0.262281
381 1 -0.030121875 -0.00261666666667 -0.013584375 0.220538
382 1 -0.030121875 -0.00261666666667 -0.012403125 0.317094
383 1 -0.030121875 -0.00261666666667 -0.011221875 0.293426
384 1 -0.030121875 -0.00261666666667 -0.010040625 0.367272
385 1 -0.030121875 -0.00261666666667 -0.008859375 0.358869
386 1 -0.030121875 -0.00261666666667 -0.007678125 0.404132
387 1 -0.030121875 -0.00261666666667 -0.006496875 0.412816
388 1 -0.030121875 -0.00261666666667 -0.005315625 0.428424
389 1 -0.030121875 -0.00261666666667 -0.004134375 0.45712
390 1 -0.030121875 -0.00261666666667 -0.002953125 0.445372
391 1 -0.030121875 -0.00261666666667 -0.001771875 0.485462
392 1 -0.030121875 -0.00261666666667 -0.000590625 0.452502
393 1 -0.030121875 -0.00261666666667 0.000590625 0.500032
394 1 -0.030121875 -0.00261666666667 0.001771875 0.451686
395 1 -0.030121875 -0.00261666666667 0.002953125 0.501545
396 1 -0.030121875 -0.00261666666667 0.004134375 0.432009
397 1 -0.030121875 -0.00261666666667 0.005315625 0.48646
398 1 -0.030121875 -0.00261666666667 0.006496875 0.402855
399 1 -0.030121875 -0.00261666666667 0.007678125 0.451298
400 1 -0.030121875 -0.00261666666667 0.008859375 0.362543
401 1 -0.030121875 -0.00261666666667 0.010040625 0.399289
402 1 -0.030121875 -0.00261666666667 0.011221875 0.318707
403 1 -0.030121875 -0.00261666666667 0.012403125 0.335676
404 1 -0.030121875 -0.00261666666667 0.013584375 0.278199
405 1 -0.030121875 -0.00261666666667 0.014765625 0.270047
406 1 -0.030121875 -0.00261666666667 0.015946875 0.244121
407 1 -0.030121875 -0.00261666666667 0.017128125 0.219161
408 1 -0.030121875 -0.00261666666667 0.018309375 0.21927
409 1 -0.030121875 -0.00261666666667 0.019490625 0.18392
410 1 -0.030121875 -0.00261666666667 0.020671875 0.203317
411 1 -0.030121875 -0.00125 -0.020671875 0.0814357
412 1 -0.030121875 -0.00125 -0.019490625 0.172353
413 1 -0.030121875 -0.00125 -0.018309375 0.108041
414 1 -0.030121875 -0.00125 -0.017128125 0.21174
415 1 -0.030121875 -0.00125 -0.015946875 0.155934
416 1 -0.030121875 -0.00125 -0.014765625 0.262281
417 1 -0.030121875 -0.00125 -0.013584375 0.220538
418 1 -0.030121875 -0.00125 -0.012403125 0.317094
419 1 -0.030121875 -0.00125 -0.011221875 0.293426
420 1 -0.030121875 -0.00125 -0.010040625 0.367272
421 1 -0.030121875 -0.00125 -0.008859375 0.358869
422 1 -0.030121875 -0.00125 -0.007678125 0.404132
423 1 -0.030121875 -0.00125 -0.006496875 0.412816
424 1 -0.030121875 -0.00125 -0.005315625 0.428424
425 1 -0.030121875 -0.00125 -0.004134375 0.45712
426 1 -0.030121875 -0.00125 -0.002953125 0.445372
427 1 -0.030121875 -0.00125 -0.001771875 0.485462
428 1 -0.030121875 -0.00125 -0.000590625 0.452502
429 1 -0.030121875 -0.00125 0.000590625 0.500032
430 1 -0.030121875 -0.00125 0.001771875 0.451686
431 1 -0.030121875 -0.00125 0.002953125 0.501545
432 1 -0.030121875 -0.00125 0.004134375 0.432009
433 1 -0.030121875 -0.00125 0.005315625 0.48646
434 1 -0.030121875 -0.00125 0.006496875 0.402855
435 1 -0.030121875 -0.00125 0.007678125 0.451298
436 1 -0.030121875 -0.00125 0.008859375 0.362543
437 1 -0.030121875 -0.00125 0.010040625 0.399289
438 1 -0.030121875 -0.00125 0.011221875 0.318707
439 1 -0.030121875 -0.00125 0.012403125 0.335676
440 1 -0.030121875 -0.00125 0.013584375 0.278199
441 1 -0.030121875 -0.00125 0.014765625 0.270047
442 1 -0.030121875 -0.00125 0.015946875 0.244121
443 1 -0.030121875 -0.00125 0.017128125 0.219161
444 1 -0.030121875 -0.00125 0.018309375 0.21927
445 1 -0.030121875 -0.00125 0.019490625 0.18392
446 1 -0.030121875 -0.00125 0.020671875 0.203317
447 1 -0.030121875 0.000116666666667 -0.020671875 0.0814357
448 1 -0.030121875 0.000116666666667 -0.019490625 0.172353
449 1 -0.030121875 0.000116666666667 -0.018309375 0.108041
450 1 -0.030121875 0.000116666666667 -0.017128125 0.21174
451 1 -0.030121875 0.000116666666667 -0.015946875 0.155934
452 1 -0.030121875 0.000116666666667 -0.014765625 0.262281
453 1 -0.030121875 0.000116666666667 -0.013584375 0.220538
454 1 -0.030121875 0.000116666666667 -0.012403125 0.317094
455 1 -0.030121875 0.000116666666667 -0.011221875 0.293426
456 1 -0.030121875 0.000116666666667 -0.010040625 0.367272
457 1 -0.030121875 0.000116666666667 -0.008859375 0.358869
458 1 -0.030121875 0.000116666666667 -0.007678125 0.404132
459 1 -0.030121875 0.000116666666667 -0.006496875 0.412816
460 1 -0.030121875 0.000116666666667 -0.005315625 0.428424
461 1 -0.030121875 0.000116666666667 -0.004134375 0.45712
462 1 -0.030121875 0.000116666666667 -0.002953125 0.445372
463 1 -0.030121875 0.000116666666667 -0.001771875 0.485462
464 1 -0.030121875 0.000116666666667 -0.000590625 0.452502
465 1 -0.030121875 0.000116666666667 0.000590625 0.500032
466 1 -0.030121875 0.000116666666667 0.001771875 0.451686
467 1 -0.030121875 0.000116666666667 0.002953125 0.501545
468 1 -0.030121875 0.000116666666667 0.004134375 0.432009
469 1 -0.030121875 0.000116666666667 0.005315625 0.48646
470 1 -0.030121875 0.000116666666667 0.006496875 0.402855
471 1 -0.030121875 0.000116666666667 0.007678125 0.451298
472 1 -0.030121875 0.000116666666667 0.008859375 0.362543
473 1 -0.030121875 0.000116666666667 0.010040625 0.399289
474 1 -0.030121875 0.000116666666667 0.011221875 0.318707
475 1 -0.030121875 0.000116666666667 0.012403125 0.335676
476 1 -0.030121875 0.000116666666667 0.013584375 0.278199
477 1 -0.030121875 0.000116666666667 0.014765625 0.270047
478 1 -0.030121875 0.000116666666667 0.015946875 0.244121
479 1 -0.030121875 0.000116666666667 0.017128125 0.219161
480 1 -0.030121875 0.000116666666667 0.018309375 0.21927
481 1 -0.030121875 0.000116666666667 0.019490625 0.18392
482 1 -0.030121875 0.000116666666667 0.020671875 0.203317
483 1 -0.028940625 -0.00261666666667 -0.021853125 0.23212
484 1 -0.028940625 -0.00261666666667 -0.020671875 0.163365
485 1 -0.028940625 -0.00261666666667 -0.019490625 0.283434
486 1 -0.028940625 -0.00261666666667 -0.018309375 0.214258
487 1 -0.028940625 -0.00261666666667 -0.017128125 0.348302
488 1 -0.028940625 -0.00261666666667 -0.015946875 0.282148
489 1 -0.028940625 -0.00261666666667 -0.014765625 0.424618
490 1 -0.028940625 -0.00261666666667 -0.013584375 0.354573
491 1 -0.028940625 -0.00261666666667 -0.012403125 0.48848
492 1 -0.028940625 -0.00261666666667 -0.011221875 0.421593
493 1 -0.028940625 -0.00261666666667 -0.010040625 0.541609
494 1 -0.028940625 -0.00261666666667 -0.008859375 0.471782
495 1 -0.028940625 -0.00261666666667 -0.007678125 0.577817
496 1 -0.028940625 -0.00261666666667 -0.006496875 0.509665
497 1 -0.028940625 -0.00261666666667 -0.005315625 0.605882
498 1 -0.028940625 -0.00261666666667 -0.004134375 0.532705
499 1 -0.028940625 -0.00261666666667 -0.002953125 0.618974
500 1 -0.028940625 -0.00261666666667 -0.001771875 0.548977
501 1 -0.028940625 -0.00261666666667 -0.000590625 0.625274
502 1 -0.028940625 -0.00261666666667 0.000590625 0.554552
503 1 -0.028940625 -0.00261666666667 0.001771875 0.61963
504 1 -0.028940625 -0.00261666666667 0.002953125 0.551451
505 1 -0.028940625 -0.00261666666667 0.004134375 0.602292
506 1 -0.028940625 -0.00261666666667 0.005315625 0.531641
507 1 -0.028940625 -0.00261666666667 0.006496875 0.571378
508 1 -0.028940625 -0.00261666666667 0.007678125 0.500067
509 1 -0.028940625 -0.00261666666667 0.008859375 0.532188
510 1 -0.028940625 -0.00261666666667 0.010040625 0.459985
511 1 -0.028940625 -0.00261666666667 0.011221875 0.484223
512 1 -0.028940625 -0.00261666666667 0.012403125 0.407622
513 1 -0.028940625 -0.00261666666667 0.013584375 0.433288
514 1 -0.028940625 -0.00261666666667 0.014765625 0.353477
515 1 -0.028940625 -0.00261666666667 0.015946875 0.382337
516 1 -0.028940625 -0.00261666666667 0.017128125 0.304911
517 1 -0.028940625 -0.00261666666667 0.018309375 0.340366
518 1 -0.028940625 -0.00261666666667 0.019490625 0.268436
519 1 -0.028940625 -0.00261666666667 0.020671875 0.312463
520 1 -0.028940625 -0.00261666666667 0.021853125 0.243643
521 1 -0.028940625 -0.00125 -0.021853125 0.23212
522 1 -0.028940625 -0.00125 -0.020671875 0.163365
523 1 -0.028940625 -0.00125 -0.019490625 0.283434
524 1 -0.028940625 -0.00125 -0.018309375 0.214258
525 1 -0.028940625 -0.00125 -0.017128125 0.348302
526 1 -0.028940625 -0.00125 -0.015946875 0.282148
527 1 -0.028940625 -0.00125 -0.014765625 0.424618
528 1 -0.028940625 -0.00125 -0.013584375 0.354573
529 1 -0.028940625 -0.00125 -0.012403125 0.48848
530 1 -0.028940625 -0.00125 -0.011221875 0.421593
531 1 -0.028940625 -0.00125 -0.010040625 0.541609
532 1 -0.028940625 -0.00125 -0.008859375 0.471782
533 1 -0.028940625 -0.00125 -0.007678125 0.577817
534 1 -0.028940625 -0.00125 -0.006496875 0.509665
535 1 -0.028940625 -0.00125 -0.005315625 0.605882
536 1 -0.028940625 -0.00125 -0.004134375 0.532705
537 1 -0.028940625 -0.00125 -0.002953125 0.618974
538 1 -0.028940625 -0.00125 -0.001771875 0.548977