ITEM: TIMESTEP
0
ITEM: NUMBER OF ATOMS
9240
ITEM: BOX BOUNDS ss ss ss
-3.7007399999999996e-02 3.7007399999999996e-02
-2.0002499999999999e-03 2.5000000000000004e-07
-3.7007399999999996e-02 3.7007399999999996e-02
ITEM: ATOMS id type x y z c_1
0 1 -0.037209375 -0.00261666666667 -0.000590625 0.333941
1 1 -0.037209375 -0.00125 -0.000590625 0.333941
2 1 -0.037209375 0.000116666666667 -0.000590625 0.333941
3 1 -0.036028125 -0.00261666666667 -0.007678125 0.34301
4 1 -0.036028125 -0.00261666666667 -0.006496875 0.25362
5 1 -0.036028125 -0.00261666666667 -0.005315625 0.362999
6 1 -0.036028125 -0.00261666666667 -0.004134375 0.276995
7 1 -0.036028125 -0.00261666666667 -0.002953125 0.381778
8 1 -0.036028125 -0.00261666666667 -0.001771875 0.300603
9 1 -0.036028125 -0.00261666666667 -0.000590625 0.400331
10 1 -0.036028125 -0.00261666666667 0.000590625 0.319217
11 1 -0.036028125 -0.00261666666667 0.001771875 0.411965
12 1 -0.036028125 -0.00261666666667 0.002953125 0.327081
13 1 -0.036028125 -0.00261666666667 0.004134375 0.411419
14 1 -0.036028125 -0.00261666666667 0.005315625 0.317692
15 1 -0.036028125 -0.00261666666667 0.006496875 0.395664
16 1 -0.036028125 -0.00261666666667 0.007678125 0.293914
17 1 -0.036028125 -0.00125 -0.007678125 0.34301
18 1 -0.036028125 -0.00125 -0.006496875 0.25362
19 1 -0.036028125 -0.00125 -0.005315625 0.362999
20 1 -0.036028125 -0.00125 -0.004134375 0.276995
21 1 -0.036028125 -0.00125 -0.002953125 0.381778
22 1 -0.036028125 -0.00125 -0.001771875 0.300603
23 1 -0.036028125 -0.00125 -0.000590625 0.400331
24 1 -0.036028125 -0.00125 0.000590625 0.319217
25 1 -0.036028125 -0.00125 0.001771875 0.411965
26 1 -0.036028125 -0.00125 0.002953125 0.327081
27 1 -0.036028125 -0.00125 0.004134375 0.411419
28 1 -0.036028125 -0.00125 0.005315625 0.317692
29 1 -0.036028125 -0.00125 0.006496875 0.395664
30 1 -0.036028125 -0.00125 0.007678125 0.293914
31 1 -0.036028125 0.000116666666667 -0.007678125 0.34301
32 1 -0.036028125 0.000116666666667 -0.006496875 0.25362
33 1 -0.036028125 0.000116666666667 -0.005315625 0.362999
34 1 -0.036028125 0.000116666666667 -0.004134375 0.276995
35 1 -0.036028125 0.000116666666667 -0.002953125 0.381778
36 1 -0.036028125 0.000116666666667 -0.001771875 0.300603
37 1 -0.036028125 0.000116666666667 -0.000590625 0.400331
38 1 -0.036028125 0.000116666666667 0.000590625 0.319217
39 1 -0.036028125 0.000116666666667 0.001771875 0.411965
40 1 -0.036028125 0.000116666666667 0.002953125 0.327081
41 1 -0.036028125 0.000116666666667 0.004134375 0.411419
42 1 -0.036028125 0.000116666666667 0.005315625 0.317692
43 1 -0.036028125 0.000116666666667 0.006496875 0.395664
44 1 -0.036028125 0.000116666666667 0.007678125 0.293914
45 1 -0.034846875 -0.00261666666667 -0.011221875 0.196792
46 1 -0.034846875 -0.00261666666667 -0.010040625 0.224366
47 1 -0.034846875 -0.00261666666667 -0.008859375 0.224542
48 1 -0.034846875 -0.00261666666667 -0.007678125 0.244734
49 1 -0.034846875 -0.00261666666667 -0.006496875 0.251144
50 1 -0.034846875 -0.00261666666667 -0.005315625 0.263889
51 1 -0.034846875 -0.00261666666667 -0.004134375 0.279479
52 1 -0.034846875 -0.00261666666667 -0.002953125 0.283436
53 1 -0.034846875 -0.00261666666667 -0.001771875 0.309362
54 1 -0.034846875 -0.00261666666667 -0.000590625 0.301766
55 1 -0.034846875 -0.00261666666667 0.000590625 0.337011
56 1 -0.034846875 -0.00261666666667 0.001771875 0.31443
57 1 -0.034846875 -0.00261666666667 0.002953125 0.351487
58 1 -0.034846875 -0.00261666666667 0.004134375 0.31126
59 1 -0.034846875 -0.00261666666667 0.005315625 0.349004
60 1 -0.034846875 -0.00261666666667 0.006496875 0.294505
61 1 -0.034846875 -0.00261666666667 0.007678125 0.32368
62 1 -0.034846875 -0.00261666666667 0.008859375 0.263784
63 1 -0.034846875 -0.00261666666667 0.010040625 0.281875
64 1 -0.034846875 -0.00261666666667 0.011221875 0.229088
65 1 -0.034846875 -0.00125 -0.011221875 0.196792
66 1 -0.034846875 -0.00125 -0.010040625 0.224366
67 1 -0.034846875 -0.00125 -0.008859375 0.224542
68 1 -0.034846875 -0.00125 -0.007678125 0.244734
69 1 -0.034846875 -0.00125 -0.006496875 0.251144
70 1 -0.034846875 -0.00125 -0.005315625 0.263889
71 1 -0.034846875 -0.00125 -0.004134375 0.279479
72 1 -0.034846875 -0.00125 -0.002953125 0.283436
73 1 -0.034846875 -0.00125 -0.001771875 0.309362
74 1 -0.034846875 -0.00125 -0.000590625 0.301766
75 1 -0.034846875 -0.00125 0.000590625 0.337011
76 1 -0.034846875 -0.00125 0.001771875 0.31443
77 1 -0.034846875 -0.00125 0.002953125 0.351487
78 1 -0.034846875 -0.00125 0.004134375 0.31126
79 1 -0.034846875 -0.00125 0.005315625 0.349004
80 1 -0.034846875 -0.00125 0.006496875 0.294505
81 1 -0.034846875 -0.00125 0.007678125 0.32368
82 1 -0.034846875 -0.00125 0.008859375 0.263784
83 1 -0.034846875 -0.00125 0.010040625 0.281875
84 1 -0.034846875 -0.00125 0.011221875 0.229088
85 1 -0.034846875 0.000116666666667 -0.011221875 0.196792
86 1 -0.034846875 0.000116666666667 -0.010040625 0.224366
87 1 -0.034846875 0.000116666666667 -0.008859375 0.224542
88 1 -0.034846875 0.000116666666667 -0.007678125 0.244734
89 1 -0.034846875 0.000116666666667 -0.006496875 0.251144
90 1 -0.034846875 0.000116666666667 -0.005315625 0.263889
91 1 -0.034846875 0.000116666666667 -0.004134375 0.279479
92 1 -0.034846875 0.000116666666667 -0.002953125 0.283436
93 1 -0.034846875 0.000116666666667 -0.001771875 0.309362
94 1 -0.034846875 0.000116666666667 -0.000590625 0.301766
95 1 -0.034846875 0.000116666666667 0.000590625 0.337011
96 1 -0.034846875 0.000116666666667 0.001771875 0.31443
97 1 -0.034846875 0.000116666666667 0.002953125 0.351487
98 1 -0.034846875 0.000116666666667 0.004134375 0.31126
99 1 -0.034846875 0.000116666666667 0.005315625 0.349004
100 1 -0.034846875 0.000116666666667 0.006496875 0.294505
101 1 -0.034846875 0.000116666666667 0.007678125 0.32368
102 1 -0.034846875 0.000116666666667 0.008859375 0.263784
103 1 -0.034846875 0.000116666666667 0.010040625 0.281875
104 1 -0.034846875 0.000116666666667 0.011221875 0.229088
105 1 -0.033665625 -0.00261666666667 -0.013584375 0.229691
106 1 -0.033665625 -0.00261666666667 -0.012403125 0.348522
107 1 -0.033665625 -0.00261666666667 -0.011221875 0.27824
108 1 -0.033665625 -0.00261666666667 -0.010040625 0.387311
109 1 -0.033665625 -0.00261666666667 -0.008859375 0.32073
110 1 -0.033665625 -0.00261666666667 -0.007678125 0.417069
111 1 -0.033665625 -0.00261666666667 -0.006496875 0.357604
112 1 -0.033665625 -0.00261666666667 -0.005315625 0.444684
113 1 -0.033665625 -0.00261666666667 -0.004134375 0.39128
114 1 -0.033665625 -0.00261666666667 -0.002953125 0.469125
115 1 -0.033665625 -0.00261666666667 -0.001771875 0.424946
116 1 -0.033665625 -0.00261666666667 -0.000590625 0.492684
117 1 -0.033665625 -0.00261666666667 0.000590625 0.451484
118 1 -0.033665625 -0.00261666666667 0.001771875 0.507347
119 1 -0.033665625 -0.00261666666667 0.002953125 0.4639
120 1 -0.033665625 -0.00261666666667 0.004134375 0.506913
121 1 -0.033665625 -0.00261666666667 0.005315625 0.453436
122 1 -0.033665625 -0.00261666666667 0.006496875 0.4891
123 1 -0.033665625 -0.00261666666667 0.007678125 0.420098
124 1 -0.033665625 -0.00261666666667 0.008859375 0.453103
125 1 -0.033665625 -0.00261666666667 0.010040625 0.364475
126 1 -0.033665625 -0.00261666666667 0.011221875 0.399139
127 1 -0.033665625 -0.00261666666667 0.012403125 0.295976
128 1 -0.033665625 -0.00261666666667 0.013584375 0.3376
129 1 -0.033665625 -0.00125 -0.013584375 0.229691
130 1 -0.033665625 -0.00125 -0.012403125 0.348522
131 1 -0.033665625 -0.00125 -0.011221875 0.27824
132 1 -0.033665625 -0.00125 -0.010040625 0.387311
133 1 -0.033665625 -0.00125 -0.008859375 0.32073
134 1 -0.033665625 -0.00125 -0.007678125 0.417069
135 1 -0.033665625 -0.00125 -0.006496875 0.357604
136 1 -0.033665625 -0.00125 -0.005315625 0.444684
137 1 -0.033665625 -0.00125 -0.004134375 0.39128
138 1 -0.033665625 -0.00125 -0.002953125 0.469125
139 1 -0.033665625 -0.00125 -0.001771875 0.424946
140 1 -0.033665625 -0.00125 -0.000590625 0.492684
141 1 -0.033665625 -0.00125 0.000590625 0.451484
142 1 -0.033665625 -0.00125 0.001771875 0.507347
143 1 -0.033665625 -0.00125 0.002953125 0.4639
144 1 -0.033665625 -0.00125 0.004134375 0.506913
145 1 -0.033665625 -0.00125 0.005315625 0.453436
146 1 -0.033665625 -0.00125 0.006496875 0.4891
147 1 -0.033665625 -0.00125 0.007678125 0.420098
148 1 -0.033665625 -0.00125 0.008859375 0.453103
149 1 -0.033665625 -0.00125 0.010040625 0.364475
150 1 -0.033665625 -0.00125 0.011221875 0.399139
151 1 -0.033665625 -0.00125 0.012403125 0.295976
152 1 -0.033665625 -0.00125 0.013584375 0.3376
153 1 -0.033665625 0.000116666666667 -0.013584375 0.229691
154 1 -0.033665625 0.000116666666667 -0.012403125 0.348522
155 1 -0.033665625 0.000116666666667 -0.011221875 0.27824
156 1 -0.033665625 0.000116666666667 -0.010040625 0.387311
157 1 -0.033665625 0.000116666666667 -0.008859375 0.32073
158 1 -0.033665625 0.000116666666667 -0.007678125 0.417069
159 1 -0.033665625 0.000116666666667 -0.006496875 0.357604
160 1 -0.033665625 0.000116666666667 -0.005315625 0.444684
161 1 -0.033665625 0.000116666666667 -0.004134375 0.39128
162 1 -0.033665625 0.000116666666667 -0.002953125 0.469125
163 1 -0.033665625 0.000116666666667 -0.001771875 0.424946
164 1 -0.033665625 0.000116666666667 -0.000590625 0.492684
165 1 -0.033665625 0.000116666666667 0.000590625 0.451484
166 1 -0.033665625 0.000116666666667 0.001771875 0.507347
167 1 -0.033665625 0.000116666666667 0.002953125 0.4639
168 1 -0.033665625 0.000116666666667 0.004134375 0.506913
169 1 -0.033665625 0.000116666666667 0.005315625 0.453436
170 1 -0.033665625 0.000116666666667 0.006496875 0.4891
171 1 -0.033665625 0.000116666666667 0.007678125 0.420098
172 1 -0.033665625 0.000116666666667 0.008859375 0.453103
173 1 -0.033665625 0.000116666666667 0.010040625 0.364475
174 1 -0.033665625 0.000116666666667 0.011221875 0.399139
175 1 -0.033665625 0.000116666666667 0.012403125 0.295976
176 1 -0.033665625 0.000116666666667 0.013584375 0.3376
177 1 -0.032484375 -0.00261666666667 -0.018309375 0.150121
178 1 -0.032484375 -0.00261666666667 -0.017128125 0.198336
179 1 -0.032484375 -0.00261666666667 -0.015946875 0.20028
180 1 -0.032484375 -0.00261666666667 -0.014765625 0.244706
181 1 -0.032484375 -0.00261666666667 -0.013584375 0.256803
182 1 -0.032484375 -0.00261666666667 -0.012403125 0.289575
183 1 -0.032484375 -0.00261666666667 -0.011221875 0.31178
184 1 -0.032484375 -0.00261666666667 -0.010040625 0.325966
185 1 -0.032484375 -0.00261666666667 -0.008859375 0.355637
186 1 -0.032484375 -0.00261666666667 -0.007678125 0.35534
187 1 -0.032484375 -0.00261666666667 -0.006496875 0.387157
188 1 -0.032484375 -0.00261666666667 -0.005315625 0.380175
189 1 -0.032484375 -0.00261666666667 -0.004134375 0.418265
190 1 -0.032484375 -0.00261666666667 -0.002953125 0.401722
191 1 -0.032484375 -0.00261666666667 -0.001771875 0.450815
192 1 -0.032484375 -0.00261666666667 -0.000590625 0.421937
193 1 -0.032484375 -0.00261666666667 0.000590625 0.480927
194 1 -0.032484375 -0.00261666666667 0.001771875 0.436168
195 1 -0.032484375 -0.00261666666667 0.002953125 0.497966
196 1 -0.032484375 -0.00261666666667 0.004134375 0.43161
197 1 -0.032484375 -0.00261666666667 0.005315625 0.500072
198 1 -0.032484375 -0.00261666666667 0.006496875 0.413733
199 1 -0.032484375 -0.00261666666667 0.007678125 0.478102
200 1 -0.032484375 -0.00261666666667 0.008859375 0.375755
201 1 -0.032484375 -0.00261666666667 0.010040625 0.430838
202 1 -0.032484375 -0.00261666666667 0.011221875 0.321558
203 1 -0.032484375 -0.00261666666667 0.012403125 0.359346
204 1 -0.032484375 -0.00261666666667 0.013584375 0.257039
205 1 -0.032484375 -0.00261666666667 0.014765625 0.271697
206 1 -0.032484375 -0.00261666666667 0.015946875 0.19636
207 1 -0.032484375 -0.00261666666667 0.017128125 0.194307
208 1 -0.032484375 -0.00261666666667 0.018309375 0.150315
209 1 -0.032484375 -0.00125 -0.018309375 0.150121
210 1 -0.032484375 -0.00125 -0.017128125 0.198336
211 1 -0.032484375 -0.00125 -0.015946875 0.20028
212 1 -0.032484375 -0.00125 -0.014765625 0.244706
213 1 -0.032484375 -0.00125 -0.013584375 0.256803
214 1 -0.032484375 -0.00125 -0.012403125 0.289575
215 1 -0.032484375 -0.00125 -0.011221875 0.31178
216 1 -0.032484375 -0.00125 -0.010040625 0.325966
217 1 -0.032484375 -0.00125 -0.008859375 0.355637
218 1 -0.032484375 -0.00125 -0.007678125 0.35534
219 1 -0.032484375 -0.00125 -0.006496875 0.387157
220 1 -0.032484375 -0.00125 -0.005315625 0.380175
221 1 -0.032484375 -0.00125 -0.004134375 0.418265
222 1 -0.032484375 -0.00125 -0.002953125 0.401722
223 1 -0.032484375 -0.00125 -0.001771875 0.450815
224 1 -0.032484375 -0.00125 -0.000590625 0.421937
225 1 -0.032484375 -0.00125 0.000590625 0.480927
226 1 -0.032484375 -0.00125 0.001771875 0.436168
227 1 -0.032484375 -0.00125 0.002953125 0.497966
228 1 -0.032484375 -0.00125 0.004134375 0.43161
229 1 -0.032484375 -0.00125 0.005315625 0.500072
230 1 -0.032484375 -0.00125 0.006496875 0.413733
231 1 -0.032484375 -0.00125 0.007678125 0.478102
232 1 -0.032484375 -0.00125 0.008859375 0.375755
233 1 -0.032484375 -0.00125 0.010040625 0.430838
234 1 -0.032484375 -0.00125 0.011221875 0.321558
235 1 -0.032484375 -0.00125 0.012403125 0.359346
236 1 -0.032484375 -0.00125 0.013584375 0.257039
237 1 -0.032484375 -0.00125 0.014765625 0.271697
238 1 -0.032484375 -0.00125 0.015946875 0.19636
239 1 -0.032484375 -0.00125 0.017128125 0.194307
240 1 -0.032484375 -0.00125 0.018309375 0.150315
241 1 -0.032484375 0.000116666666667 -0.018309375 0.150121
242 1 -0.032484375 0.000116666666667 -0.017128125 0.198336
243 1 -0.032484375 0.000116666666667 -0.015946875 0.20028
244 1 -0.032484375 0.000116666666667 -0.014765625 0.244706
245 1 -0.032484375 0.000116666666667 -0.013584375 0.256803
246 1 -0.032484375 0.000116666666667 -0.012403125 0.289575
247 1 -0.032484375 0.000116666666667 -0.011221875 0.31178
248 1 -0.032484375 0.000116666666667 -0.010040625 0.325966
249 1 -0.032484375 0.000116666666667 -0.008859375 0.355637
250 1 -0.032484375 0.000116666666667 -0.007678125 0.35534
251 1 -0.032484375 0.000116666666667 -0.006496875 0.387157
252 1 -0.032484375 0.000116666666667 -0.005315625 0.380175
253 1 -0.032484375 0.000116666666667 -0.004134375 0.418265
254 1 -0.032484375 0.000116666666667 -0.002953125 0.401722
255 1 -0.032484375 0.000116666666667 -0.001771875 0.450815
256 1 -0.032484375 0.000116666666667 -0.000590625 0.421937
257 1 -0.032484375 0.000116666666667 0.000590625 0.480927
258 1 -0.032484375 0.000116666666667 0.001771875 0.436168
259 1 -0.032484375 0.000116666666667 0.002953125 0.497966
260 1 -0.032484375 0.000116666666667 0.004134375 0.43161
261 1 -0.032484375 0.000116666666667 0.005315625 0.500072
262 1 -0.032484375 0.000116666666667 0.006496875 0.413733
263 1 -0.032484375 0.000116666666667 0.007678125 0.478102
264 1 -0.032484375 0.000116666666667 0.008859375 0.375755
265 1 -0.032484375 0.000116666666667 0.010040625 0.430838
266 1 -0.032484375 0.000116666666667 0.011221875 0.321558
267 1 -0.032484375 0.000116666666667 0.012403125 0.359346
268 1 -0.032484375 0.000116666666667 0.013584375 0.257039
269 1 -0.032484375 0.000116666666667 0.014765625 0.271697
270 1 -0.032484375 0.000116666666667 0.015946875 0.19636
271 1 -0.032484375 0.000116666666667 0.017128125 0.194307
272 1 -0.032484375 0.000116666666667 0.018309375 0.150315
273 1 -0.031303125 -0.00261666666667 -0.019490625 0.299636
274 1 -0.031303125 -0.00261666666667 -0.018309375 0.262583
275 1 -0.031303125 -0.00261666666667 -0.017128125 0.363066
276 1 -0.031303125 -0.00261666666667 -0.015946875 0.342629
277 1 -0.031303125 -0.00261666666667 -0.014765625 0.425071
278 1 -0.031303125 -0.00261666666667 -0.013584375 0.415115
279 1 -0.031303125 -0.00261666666667 -0.012403125 0.472836
280 1 -0.031303125 -0.00261666666667 -0.011221875 0.474366
281 1 -0.031303125 -0.00261666666667 -0.010040625 0.50961
282 1 -0.031303125 -0.00261666666667 -0.008859375 0.511206
283 1 -0.031303125 -0.00261666666667 -0.007678125 0.533673
284 1 -0.031303125 -0.00261666666667 -0.006496875 0.536404
285 1 -0.031303125 -0.00261666666667 -0.005315625 0.554437
286 1 -0.031303125 -0.00261666666667 -0.004134375 0.55517
287 1 -0.031303125 -0.00261666666667 -0.002953125 0.571105
288 1 -0.031303125 -0.00261666666667 -0.001771875 0.573466
289 1 -0.031303125 -0.00261666666667 -0.000590625 0.588882
290 1 -0.031303125 -0.00261666666667 0.000590625 0.589657
291 1 -0.031303125 -0.00261666666667 0.001771875 0.60075
292 1 -0.031303125 -0.00261666666667 0.002953125 0.601733
293 1 -0.031303125 -0.00261666666667 0.004134375 0.602355
294 1 -0.031303125 -0.00261666666667 0.005315625 0.600951
295 1 -0.031303125 -0.00261666666667 0.006496875 0.59041
296 1 -0.031303125 -0.00261666666667 0.007678125 0.58819
297 1 -0.031303125 -0.00261666666667 0.008859375 0.5641
298 1 -0.031303125 -0.00261666666667 0.010040625 0.553714
299 1 -0.031303125 -0.00261666666667 0.011221875 0.516494
300 1 -0.031303125 -0.00261666666667 0.012403125 0.482271
301 1 -0.031303125 -0.00261666666667 0.013584375 0.449847
302 1 -0.031303125 -0.00261666666667 0.014765625 0.382253
303 1 -0.031303125 -0.00261666666667 0.015946875 0.367901
304 1 -0.031303125 -0.00261666666667 0.017128125 0.279778
305 1 -0.031303125 -0.00261666666667 0.018309375 0.292426
306 1 -0.031303125 -0.00261666666667 0.019490625 0.199529
307 1 -0.031303125 -0.00125 -0.019490625 0.299636
308 1 -0.031303125 -0.00125 -0.018309375 0.262583
309 1 -0.031303125 -0.00125 -0.017128125 0.363066
310 1 -0.031303125 -0.00125 -0.015946875 0.342629
311 1 -0.031303125 -0.00125 -0.014765625 0.425071
312 1 -0.031303125 -0.00125 -0.013584375 0.415115
313 1 -0.031303125 -0.00125 -0.012403125 0.472836
314 1 -0.031303125 -0.00125 -0.011221875 0.474366
315 1 -0.031303125 -0.00125 -0.010040625 0.50961
316 1 -0.031303125 -0.00125 -0.008859375 0.511206
317 1 -0.031303125 -0.00125 -0.007678125 0.533673
318 1 -0.031303125 -0.00125 -0.006496875 0.536404
319 1 -0.031303125 -0.00125 -0.005315625 0.554437
320 1 -0.031303125 -0.00125 -0.004134375 0.55517
321 1 -0.031303125 -0.00125 -0.002953125 0.571105
322 1 -0.031303125 -0.00125 -0.001771875 0.573466
323 1 -0.031303125 -0.00125 -0.000590625 0.588882
324 1 -0.031303125 -0.00125 0.000590625 0.589657
325 1 -0.031303125 -0.00125 0.001771875 0.60075
326 1 -0.031303125 -0.00125 0.002953125 0.601733
327 1 -0.031303125 -0.00125 0.004134375 0.602355
328 1 -0.031303125 -0.00125 0.005315625 0.600951
329 1 -0.031303125 -0.00125 0.006496875 0.59041
330 1 -0.031303125 -0.00125 0.007678125 0.58819
331 1 -0.031303125 -0.00125 0.008859375 0.5641
332 1 -0.031303125 -0.00125 0.010040625 0.553714
333 1 -0.031303125 -0.00125 0.011221875 0.516494
334 1 -0.031303125 -0.00125 0.012403125 0.482271
335 1 -0.031303125 -0.00125 0.013584375 0.449847
336 1 -0.031303125 -0.00125 0.014765625 0.382253
337 1 -0.031303125 -0.00125 0.015946875 0.367901
338 1 -0.031303125 -0.00125 0.017128125 0.279778
339 1 -0.031303125 -0.00125 0.018309375 0.292426
340 1 -0.031303125 -0.00125 0.019490625 0.199529
341 1 -0.031303125 0.000116666666667 -0.019490625 0.299636
342 1 -0.031303125 0.000116666666667 -0.018309375 0.262583
343 1 -0.031303125 0.000116666666667 -0.017128125 0.363066
344 1 -0.031303125 0.000116666666667 -0.015946875 0.342629
345 1 -0.031303125 0.000116666666667 -0.014765625 0.425071
346 1 -0.031303125 0.000116666666667 -0.013584375 0.415115
347 1 -0.031303125 0.000116666666667 -0.012403125 0.472836
348 1 -0.031303125 0.000116666666667 -0.011221875 0.474366
349 1 -0.031303125 0.000116666666667 -0.010040625 0.50961
350 1 -0.031303125 0.000116666666667 -0.008859375 0.511206
351 1 -0.031303125 0.000116666666667 -0.007678125 0.533673
352 1 -0.031303125 0.000116666666667 -0.006496875 0.536404
353 1 -0.031303125 0.000116666666667 -0.005315625 0.554437
354 1 -0.031303125 0.000116666666667 -0.004134375 0.55517
355 1 -0.031303125 0.000116666666667 -0.002953125 0.571105
356 1 -0.031303125 0.000116666666667 -0.001771875 0.573466
357 1 -0.031303125 0.000116666666667 -0.000590625 0.588882
358 1 -0.031303125 0.000116666666667 0.000590625 0.589657
359 1 -0.031303125 0.000116666666667 0.001771875 0.60075
360 1 -0.031303125 0.000116666666667 0.002953125 0.601733
361 1 -0.031303125 0.000116666666667 0.004134375 0.602355
362 1 -0.031303125 0.000116666666667 0.005315625 0.600951
363 1 -0.031303125 0.000116666666667 0.006496875 0.59041
364 1 -0.031303125 0.000116666666667 0.007678125 0.58819
365 1 -0.031303125 0.000116666666667 0.008859375 0.5641
366 1 -0.031303125 0.000116666666667 0.010040625 0.553714
367 1 -0.031303125 0.000116666666667 0.011221875 0.516494
368 1 -0.031303125 0.000116666666667 0.012403125 0.482271
369 1 -0.031303125 0.000116666666667 0.013584375 0.449847
370 1 -0.031303125 0.000116666666667 0.014765625 0.382253
371 1 -0.031303125 0.000116666666667 0.015946875 0.367901
372 1 -0.031303125 0.000116666666667 0.017128125 0.279778
373 1 -0.031303125 0.000116666666667 0.018309375 0.292426
374 1 -0.031303125 0.000116666666667 0.019490625 0.199529
375 1 -0.030121875 -0.00261666666667 -0.020671875 0.222318
376 1 -0.030121875 -0.00261666666667 -0.019490625 0.271444
377 1 -0.030121875 -0.00261666666667 -0.018309375 0.293565
378 1 -0.030121875 -0.00261666666667 -0.017128125 0.340066
379 1 -0.030121875 -0.00261666666667 -0.015946875 0.364045
380 1 -0.030121875 -0.00261666666667 -0.014765625 0.396268
381 1 -0.030121875 -0.00261666666667 -0.013584375 0.426844
382 1 -0.030121875 -0.00261666666667 -0.012403125 0.440907
383 1 -0.030121875 -0.00261666666667 -0.011221875 0.474389
384 1 -0.030121875 -0.00261666666667 -0.010040625 0.472113
385 1 -0.030121875 -0.00261666666667 -0.008859375 0.506893
386 1 -0.030121875 -0.00261666666667 -0.007678125 0.490966
387 1 -0.030121875 -0.00261666666667 -0.006496875 0.528581
388 1 -0.030121875 -0.00261666666667 -0.005315625 0.506008
389 1 -0.030121875 -0.00261666666667 -0.004134375 0.548363
390 1 -0.030121875 -0.00261666666667 -0.002953125 0.519751
391 1 -0.030121875 -0.00261666666667 -0.001771875 0.569337
392 1 -0.030121875 -0.00261666666667 -0.000590625 0.53468
393 1 -0.030121875 -0.00261666666667 0.000590625 0.591869
394 1 -0.030121875 -0.00261666666667 0.001771875 0.546433
395 1 -0.030121875 -0.00261666666667 0.002953125 0.608198
396 1 -0.030121875 -0.00261666666667 0.004134375 0.543812
397 1 -0.030121875 -0.00261666666667 0.005315625 0.617677
398 1 -0.030121875 -0.00261666666667 0.006496875 0.531298
399 1 -0.030121875 -0.00261666666667 0.007678125 0.610599
400 1 -0.030121875 -0.00261666666667 0.008859375 0.502711
401 1 -0.030121875 -0.00261666666667 0.010040625 0.583164
402 1 -0.030121875 -0.00261666666667 0.011221875 0.460898
403 1 -0.030121875 -0.00261666666667 0.012403125 0.528635
404 1 -0.030121875 -0.00261666666667 0.013584375 0.392918
405 1 -0.030121875 -0.00261666666667 0.014765625 0.4431
406 1 -0.030121875 -0.00261666666667 0.015946875 0.312805
407 1 -0.030121875 -0.00261666666667 0.017128125 0.33684
408 1 -0.030121875 -0.00261666666667 0.018309375 0.236159
409 1 -0.030121875 -0.00261666666667 0.019490625 0.238008
410 1 -0.030121875 -0.00261666666667 0.020671875 0.180325
411 1 -0.030121875 -0.00125 -0.020671875 0.222318
412 1 -0.030121875 -0.00125 -0.019490625 0.271444
413 1 -0.030121875 -0.00125 -0.018309375 0.293565
414 1 -0.030121875 -0.00125 -0.017128125 0.340066
415 1 -0.030121875 -0.00125 -0.015946875 0.364045
416 1 -0.030121875 -0.00125 -0.014765625 0.396268
417 1 -0.030121875 -0.00125 -0.013584375 0.426844
418 1 -0.030121875 -0.00125 -0.012403125 0.440907
419 1 -0.030121875 -0.00125 -0.011221875 0.474389
420 1 -0.030121875 -0.00125 -0.010040625 0.472113
421 1 -0.030121875 -0.00125 -0.008859375 0.506893
422 1 -0.030121875 -0.00125 -0.007678125 0.490966
423 1 -0.030121875 -0.00125 -0.006496875 0.528581
424 1 -0.030121875 -0.00125 -0.005315625 0.506008
425 1 -0.030121875 -0.00125 -0.004134375 0.548363
426 1 -0.030121875 -0.00125 -0.002953125 0.519751
427 1 -0.030121875 -0.00125 -0.001771875 0.569337
428 1 -0.030121875 -0.00125 -0.000590625 0.53468
429 1 -0.030121875 -0.00125 0.000590625 0.591869
430 1 -0.030121875 -0.00125 0.001771875 0.546433
431 1 -0.030121875 -0.00125 0.002953125 0.608198
432 1 -0.030121875 -0.00125 0.004134375 0.543812
433 1 -0.030121875 -0.00125 0.005315625 0.617677
434 1 -0.030121875 -0.00125 0.006496875 0.531298
435 1 -0.030121875 -0.00125 0.007678125 0.610599
436 1 -0.030121875 -0.00125 0.008859375 0.502711
437 1 -0.030121875 -0.00125 0.010040625 0.583164
438 1 -0.030121875 -0.00125 0.011221875 0.460898
439 1 -0.030121875 -0.00125 0.012403125 0.528635
440 1 -0.030121875 -0.00125 0.013584375 0.392918
441 1 -0.030121875 -0.00125 0.014765625 0.4431
442 1 -0.030121875 -0.00125 0.015946875 0.312805
443 1 -0.030121875 -0.00125 0.017128125 0.33684
444 1 -0.030121875 -0.00125 0.018309375 0.236159
445 1 -0.030121875 -0.00125 0.019490625 0.238008
446 1 -0.030121875 -0.00125 0.020671875 0.180325
447 1 -0.030121875 0.000116666666667 -0.020671875 0.222318
448 1 -0.030121875 0.000116666666667 -0.019490625 0.271444
449 1 -0.030121875 0.000116666666667 -0.018309375 0.293565
450 1 -0.030121875 0.000116666666667 -0.017128125 0.340066
451 1 -0.030121875 0.000116666666667 -0.015946875 0.364045
452 1 -0.030121875 0.000116666666667 -0.014765625 0.396268
453 1 -0.030121875 0.000116666666667 -0.013584375 0.426844
454 1 -0.030121875 0.000116666666667 -0.012403125 0.440907
455 1 -0.030121875 0.000116666666667 -0.011221875 0.474389
456 1 -0.030121875 0.000116666666667 -0.010040625 0.472113
457 1 -0.030121875 0.000116666666667 -0.008859375 0.506893
458 1 -0.030121875 0.000116666666667 -0.007678125 0.490966
459 1 -0.030121875 0.000116666666667 -0.006496875 0.528581
460 1 -0.030121875 0.000116666666667 -0.005315625 0.506008
461 1 -0.030121875 0.000116666666667 -0.004134375 0.548363
462 1 -0.030121875 0.000116666666667 -0.002953125 0.519751
463 1 -0.030121875 0.000116666666667 -0.001771875 0.569337
464 1 -0.030121875 0.000116666666667 -0.000590625 0.53468
465 1 -0.030121875 0.000116666666667 0.000590625 0.591869
466 1 -0.030121875 0.000116666666667 0.001771875 0.546433
467 1 -0.030121875 0.000116666666667 0.002953125 0.608198
468 1 -0.030121875 0.000116666666667 0.004134375 0.543812
469 1 -0.030121875 0.000116666666667 0.005315625 0.617677
470 1 -0.030121875 0.000116666666667 0.006496875 0.531298
471 1 -0.030121875 0.000116666666667 0.007678125 0.610599
472 1 -0.030121875 0.000116666666667 0.008859375 0.502711
473 1 -0.030121875 0.000116666666667 0.010040625 0.583164
474 1 -0.030121875 0.000116666666667 0.011221875 0.460898
475 1 -0.030121875 0.000116666666667 0.012403125 0.528635
476 1 -0.030121875 0.000116666666667 0.013584375 0.392918
477 1 -0.030121875 0.000116666666667 0.014765625 0.4431
478 1 -0.030121875 0.000116666666667 0.015946875 0.312805
479 1 -0.030121875 0.000116666666667 0.017128125 0.33684
480 1 -0.030121875 0.000116666666667 0.018309375 0.236159
481 1 -0.030121875 0.000116666666667 0.019490625 0.238008
482 1 -0.030121875 0.000116666666667 0.020671875 0.180325
483 1 -0.028940625 -0.00261666666667 -0.021853125 0.365802
484 1 -0.028940625 -0.00261666666667 -0.020671875 0.365871
485 1 -0.028940625 -0.00261666666667 -0.019490625 0.440054
486 1 -0.028940625 -0.00261666666667 -0.018309375 0.451601
487 1 -0.028940625 -0.00261666666667 -0.017128125 0.499278
488 1 -0.028940625 -0.00261666666667 -0.015946875 0.512425
489 1 -0.028940625 -0.00261666666667 -0.014765625 0.544331
490 1 -0.028940625 -0.00261666666667 -0.013584375 0.550575
491 1 -0.028940625 -0.00261666666667 -0.012403125 0.577606
492 1 -0.028940625 -0.00261666666667 -0.011221875 0.580871
493 1 -0.028940625 -0.00261666666667 -0.010040625 0.602397
494 1 -0.028940625 -0.00261666666667 -0.008859375 0.601182
495 1 -0.028940625 -0.00261666666667 -0.007678125 0.618492
496 1 -0.028940625 -0.00261666666667 -0.006496875 0.617512
497 1 -0.028940625 -0.00261666666667 -0.005315625 0.633235
498 1 -0.028940625 -0.00261666666667 -0.004134375 0.630113
499 1 -0.028940625 -0.00261666666667 -0.002953125 0.6451
500 1 -0.028940625 -0.00261666666667 -0.001771875 0.644145
501 1 -0.028940625 -0.00261666666667 -0.000590625 0.658984
502 1 -0.028940625 -0.00261666666667 0.000590625 0.65734
503 1 -0.028940625 -0.00261666666667 0.001771875 0.668474
504 1 -0.028940625 -0.00261666666667 0.002953125 0.667536
505 1 -0.028940625 -0.00261666666667 0.004134375 0.670078
506 1 -0.028940625 -0.00261666666667 0.005315625 0.66733
507 1 -0.028940625 -0.00261666666667 0.006496875 0.660186
508 1 -0.028940625 -0.00261666666667 0.007678125 0.656667
509 1 -0.028940625 -0.00261666666667 0.008859375 0.637906
510 1 -0.028940625 -0.00261666666667 0.010040625 0.634475
511 1 -0.028940625 -0.00261666666667 0.011221875 0.601455
512 1 -0.028940625 -0.00261666666667 0.012403125 0.602121
513 1 -0.028940625 -0.00261666666667 0.013584375 0.551506
514 1 -0.028940625 -0.00261666666667 0.014765625 0.546392
515 1 -0.028940625 -0.00261666666667 0.015946875 0.485059
516 1 -0.028940625 -0.00261666666667 0.017128125 0.451959
517 1 -0.028940625 -0.00261666666667 0.018309375 0.403915
518 1 -0.028940625 -0.00261666666667 0.019490625 0.341795
519 1 -0.028940625 -0.00261666666667 0.020671875 0.329117
520 1 -0.028940625 -0.00261666666667 0.021853125 0.251314
521 1 -0.028940625 -0.00125 -0.021853125 0.365802
522 1 -0.028940625 -0.00125 -0.020671875 0.365871
523 1 -0.028940625 -0.00125 -0.019490625 0.440054
524 1 -0.028940625 -0.00125 -0.018309375 0.451601
525 1 -0.028940625 -0.00125 -0.017128125 0.499278
526 1 -0.028940625 -0.00125 -0.015946875 0.512425
527 1 -0.028940625 -0.00125 -0.014765625 0.544331
528 1 -0.028940625 -0.00125 -0.013584375 0.550575
529 1 -0.028940625 -0.00125 -0.012403125 0.577606
530 1 -0.028940625 -0.00125 -0.011221875 0.580871
531 1 -0.028940625 -0.00125 -0.010040625 0.602397
532 1 -0.028940625 -0.00125 -0.008859375 0.601182
533 1 -0.028940625 -0.00125 -0.007678125 0.618492
534 1 -0.028940625 -0.00125 -0.006496875 0.617512
535 1 -0.028940625 -0.00125 -0.005315625 0.633235
536 1 -0.028940625 -0.00125 -0.004134375 0.630113
537 1 -0.028940625 -0.00125 -0.002953125 0.6451
538 1 -0.028940625 -0.00125 -0.001771875 0.644145