ITEM: TIMESTEP
0
ITEM: NUMBER OF ATOMS
9240
ITEM: BOX BOUNDS ss ss ss
-3.7007399999999996e-02 3.7007399999999996e-02
-2.0002499999999999e-03 2.5000000000000004e-07
-3.7007399999999996e-02 3.7007399999999996e-02
ITEM: ATOMS id type x y z c_1
0 1 -0.037209375 -0.00261666666667 -0.000590625 0.551655
1 1 -0.037209375 -0.00125 -0.000590625 0.551655
2 1 -0.037209375 0.000116666666667 -0.000590625 0.551655
3 1 -0.036028125 -0.00261666666667 -0.007678125 0.588153
4 1 -0.036028125 -0.00261666666667 -0.006496875 0.550393
5 1 -0.036028125 -0.00261666666667 -0.005315625 0.582824
6 1 -0.036028125 -0.00261666666667 -0.004134375 0.54731
7 1 -0.036028125 -0.00261666666667 -0.002953125 0.577456
8 1 -0.036028125 -0.00261666666667 -0.001771875 0.544203
9 1 -0.036028125 -0.00261666666667 -0.000590625 0.572281
10 1 -0.036028125 -0.00261666666667 0.000590625 0.54153
11 1 -0.036028125 -0.00261666666667 0.001771875 0.567347
12 1 -0.036028125 -0.00261666666667 0.002953125 0.538892
13 1 -0.036028125 -0.00261666666667 0.004134375 0.562717
14 1 -0.036028125 -0.00261666666667 0.005315625 0.53685
15 1 -0.036028125 -0.00261666666667 0.006496875 0.558773
16 1 -0.036028125 -0.00261666666667 0.007678125 0.53477
17 1 -0.036028125 -0.00125 -0.007678125 0.588153
18 1 -0.036028125 -0.00125 -0.006496875 0.550393
19 1 -0.036028125 -0.00125 -0.005315625 0.582824
20 1 -0.036028125 -0.00125 -0.004134375 0.54731
21 1 -0.036028125 -0.00125 -0.002953125 0.577456
22 1 -0.036028125 -0.00125 -0.001771875 0.544203
23 1 -0.036028125 -0.00125 -0.000590625 0.572281
24 1 -0.036028125 -0.00125 0.000590625 0.54153
25 1 -0.036028125 -0.00125 0.001771875 0.567347
26 1 -0.036028125 -0.00125 0.002953125 0.538892
27 1 -0.036028125 -0.00125 0.004134375 0.562717
28 1 -0.036028125 -0.00125 0.005315625 0.53685
29 1 -0.036028125 -0.00125 0.006496875 0.558773
30 1 -0.036028125 -0.00125 0.007678125 0.53477
31 1 -0.036028125 0.000116666666667 -0.007678125 0.588153
32 1 -0.036028125 0.000116666666667 -0.006496875 0.550393
33 1 -0.036028125 0.000116666666667 -0.005315625 0.582824
34 1 -0.036028125 0.000116666666667 -0.004134375 0.54731
35 1 -0.036028125 0.000116666666667 -0.002953125 0.577456
36 1 -0.036028125 0.000116666666667 -0.001771875 0.544203
37 1 -0.036028125 0.000116666666667 -0.000590625 0.572281
38 1 -0.036028125 0.000116666666667 0.000590625 0.54153
39 1 -0.036028125 0.000116666666667 0.001771875 0.567347
40 1 -0.036028125 0.000116666666667 0.002953125 0.538892
41 1 -0.036028125 0.000116666666667 0.004134375 0.562717
42 1 -0.036028125 0.000116666666667 0.005315625 0.53685
43 1 -0.036028125 0.000116666666667 0.006496875 0.558773
44 1 -0.036028125 0.000116666666667 0.007678125 0.53477
45 1 -0.034846875 -0.00261666666667 -0.011221875 0.601846
46 1 -0.034846875 -0.00261666666667 -0.010040625 0.674846
47 1 -0.034846875 -0.00261666666667 -0.008859375 0.596585
48 1 -0.034846875 -0.00261666666667 -0.007678125 0.66507
49 1 -0.034846875 -0.00261666666667 -0.006496875 0.590481
50 1 -0.034846875 -0.00261666666667 -0.005315625 0.654298
51 1 -0.034846875 -0.00261666666667 -0.004134375 0.584133
52 1 -0.034846875 -0.00261666666667 -0.002953125 0.643286
53 1 -0.034846875 -0.00261666666667 -0.001771875 0.5773
54 1 -0.034846875 -0.00261666666667 -0.000590625 0.632788
55 1 -0.034846875 -0.00261666666667 0.000590625 0.570443
56 1 -0.034846875 -0.00261666666667 0.001771875 0.622692
57 1 -0.034846875 -0.00261666666667 0.002953125 0.564299
58 1 -0.034846875 -0.00261666666667 0.004134375 0.613658
59 1 -0.034846875 -0.00261666666667 0.005315625 0.558717
60 1 -0.034846875 -0.00261666666667 0.006496875 0.605643
61 1 -0.034846875 -0.00261666666667 0.007678125 0.554012
62 1 -0.034846875 -0.00261666666667 0.008859375 0.599479
63 1 -0.034846875 -0.00261666666667 0.010040625 0.550313
64 1 -0.034846875 -0.00261666666667 0.011221875 0.59453
65 1 -0.034846875 -0.00125 -0.011221875 0.601846
66 1 -0.034846875 -0.00125 -0.010040625 0.674846
67 1 -0.034846875 -0.00125 -0.008859375 0.596585
68 1 -0.034846875 -0.00125 -0.007678125 0.66507
69 1 -0.034846875 -0.00125 -0.006496875 0.590481
70 1 -0.034846875 -0.00125 -0.005315625 0.654298
71 1 -0.034846875 -0.00125 -0.004134375 0.584133
72 1 -0.034846875 -0.00125 -0.002953125 0.643286
73 1 -0.034846875 -0.00125 -0.001771875 0.5773
74 1 -0.034846875 -0.00125 -0.000590625 0.632788
75 1 -0.034846875 -0.00125 0.000590625 0.570443
76 1 -0.034846875 -0.00125 0.001771875 0.622692
77 1 -0.034846875 -0.00125 0.002953125 0.564299
78 1 -0.034846875 -0.00125 0.004134375 0.613658
79 1 -0.034846875 -0.00125 0.005315625 0.558717
80 1 -0.034846875 -0.00125 0.006496875 0.605643
81 1 -0.034846875 -0.00125 0.007678125 0.554012
82 1 -0.034846875 -0.00125 0.008859375 0.599479
83 1 -0.034846875 -0.00125 0.010040625 0.550313
84 1 -0.034846875 -0.00125 0.011221875 0.59453
85 1 -0.034846875 0.000116666666667 -0.011221875 0.601846
86 1 -0.034846875 0.000116666666667 -0.010040625 0.674846
87 1 -0.034846875 0.000116666666667 -0.008859375 0.596585
88 1 -0.034846875 0.000116666666667 -0.007678125 0.66507
89 1 -0.034846875 0.000116666666667 -0.006496875 0.590481
90 1 -0.034846875 0.000116666666667 -0.005315625 0.654298
91 1 -0.034846875 0.000116666666667 -0.004134375 0.584133
92 1 -0.034846875 0.000116666666667 -0.002953125 0.643286
93 1 -0.034846875 0.000116666666667 -0.001771875 0.5773
94 1 -0.034846875 0.000116666666667 -0.000590625 0.632788
95 1 -0.034846875 0.000116666666667 0.000590625 0.570443
96 1 -0.034846875 0.000116666666667 0.001771875 0.622692
97 1 -0.034846875 0.000116666666667 0.002953125 0.564299
98 1 -0.034846875 0.000116666666667 0.004134375 0.613658
99 1 -0.034846875 0.000116666666667 0.005315625 0.558717
100 1 -0.034846875 0.000116666666667 0.006496875 0.605643
101 1 -0.034846875 0.000116666666667 0.007678125 0.554012
102 1 -0.034846875 0.000116666666667 0.008859375 0.599479
103 1 -0.034846875 0.000116666666667 0.010040625 0.550313
104 1 -0.034846875 0.000116666666667 0.011221875 0.59453
105 1 -0.033665625 -0.00261666666667 -0.013584375 0.59103
106 1 -0.033665625 -0.00261666666667 -0.012403125 0.62244
107 1 -0.033665625 -0.00261666666667 -0.011221875 0.587226
108 1 -0.033665625 -0.00261666666667 -0.010040625 0.616859
109 1 -0.033665625 -0.00261666666667 -0.008859375 0.583112
110 1 -0.033665625 -0.00261666666667 -0.007678125 0.610474
111 1 -0.033665625 -0.00261666666667 -0.006496875 0.578803
112 1 -0.033665625 -0.00261666666667 -0.005315625 0.603684
113 1 -0.033665625 -0.00261666666667 -0.004134375 0.573747
114 1 -0.033665625 -0.00261666666667 -0.002953125 0.59648
115 1 -0.033665625 -0.00261666666667 -0.001771875 0.568676
116 1 -0.033665625 -0.00261666666667 -0.000590625 0.589393
117 1 -0.033665625 -0.00261666666667 0.000590625 0.564119
118 1 -0.033665625 -0.00261666666667 0.001771875 0.582528
119 1 -0.033665625 -0.00261666666667 0.002953125 0.559675
120 1 -0.033665625 -0.00261666666667 0.004134375 0.57597
121 1 -0.033665625 -0.00261666666667 0.005315625 0.555825
122 1 -0.033665625 -0.00261666666667 0.006496875 0.570342
123 1 -0.033665625 -0.00261666666667 0.007678125 0.552318
124 1 -0.033665625 -0.00261666666667 0.008859375 0.565321
125 1 -0.033665625 -0.00261666666667 0.010040625 0.549883
126 1 -0.033665625 -0.00261666666667 0.011221875 0.561044
127 1 -0.033665625 -0.00261666666667 0.012403125 0.54779
128 1 -0.033665625 -0.00261666666667 0.013584375 0.557415
129 1 -0.033665625 -0.00125 -0.013584375 0.59103
130 1 -0.033665625 -0.00125 -0.012403125 0.62244
131 1 -0.033665625 -0.00125 -0.011221875 0.587226
132 1 -0.033665625 -0.00125 -0.010040625 0.616859
133 1 -0.033665625 -0.00125 -0.008859375 0.583112
134 1 -0.033665625 -0.00125 -0.007678125 0.610474
135 1 -0.033665625 -0.00125 -0.006496875 0.578803
136 1 -0.033665625 -0.00125 -0.005315625 0.603684
137 1 -0.033665625 -0.00125 -0.004134375 0.573747
138 1 -0.033665625 -0.00125 -0.002953125 0.59648
139 1 -0.033665625 -0.00125 -0.001771875 0.568676
140 1 -0.033665625 -0.00125 -0.000590625 0.589393
141 1 -0.033665625 -0.00125 0.000590625 0.564119
142 1 -0.033665625 -0.00125 0.001771875 0.582528
143 1 -0.033665625 -0.00125 0.002953125 0.559675
144 1 -0.033665625 -0.00125 0.004134375 0.57597
145 1 -0.033665625 -0.00125 0.005315625 0.555825
146 1 -0.033665625 -0.00125 0.006496875 0.570342
147 1 -0.033665625 -0.00125 0.007678125 0.552318
148 1 -0.033665625 -0.00125 0.008859375 0.565321
149 1 -0.033665625 -0.00125 0.010040625 0.549883
150 1 -0.033665625 -0.00125 0.011221875 0.561044
151 1 -0.033665625 -0.00125 0.012403125 0.54779
152 1 -0.033665625 -0.00125 0.013584375 0.557415
153 1 -0.033665625 0.000116666666667 -0.013584375 0.59103
154 1 -0.033665625 0.000116666666667 -0.012403125 0.62244
155 1 -0.033665625 0.000116666666667 -0.011221875 0.587226
156 1 -0.033665625 0.000116666666667 -0.010040625 0.616859
157 1 -0.033665625 0.000116666666667 -0.008859375 0.583112
158 1 -0.033665625 0.000116666666667 -0.007678125 0.610474
159 1 -0.033665625 0.000116666666667 -0.006496875 0.578803
160 1 -0.033665625 0.000116666666667 -0.005315625 0.603684
161 1 -0.033665625 0.000116666666667 -0.004134375 0.573747
162 1 -0.033665625 0.000116666666667 -0.002953125 0.59648
163 1 -0.033665625 0.000116666666667 -0.001771875 0.568676
164 1 -0.033665625 0.000116666666667 -0.000590625 0.589393
165 1 -0.033665625 0.000116666666667 0.000590625 0.564119
166 1 -0.033665625 0.000116666666667 0.001771875 0.582528
167 1 -0.033665625 0.000116666666667 0.002953125 0.559675
168 1 -0.033665625 0.000116666666667 0.004134375 0.57597
169 1 -0.033665625 0.000116666666667 0.005315625 0.555825
170 1 -0.033665625 0.000116666666667 0.006496875 0.570342
171 1 -0.033665625 0.000116666666667 0.007678125 0.552318
172 1 -0.033665625 0.000116666666667 0.008859375 0.565321
173 1 -0.033665625 0.000116666666667 0.010040625 0.549883
174 1 -0.033665625 0.000116666666667 0.011221875 0.561044
175 1 -0.033665625 0.000116666666667 0.012403125 0.54779
176 1 -0.033665625 0.000116666666667 0.013584375 0.557415
177 1 -0.032484375 -0.00261666666667 -0.018309375 0.646947
178 1 -0.032484375 -0.00261666666667 -0.017128125 0.734023
179 1 -0.032484375 -0.00261666666667 -0.015946875 0.644142
180 1 -0.032484375 -0.00261666666667 -0.014765625 0.729079
181 1 -0.032484375 -0.00261666666667 -0.013584375 0.640776
182 1 -0.032484375 -0.00261666666667 -0.012403125 0.722998
183 1 -0.032484375 -0.00261666666667 -0.011221875 0.635656
184 1 -0.032484375 -0.00261666666667 -0.010040625 0.713889
185 1 -0.032484375 -0.00261666666667 -0.008859375 0.628905
186 1 -0.032484375 -0.00261666666667 -0.007678125 0.703117
187 1 -0.032484375 -0.00261666666667 -0.006496875 0.620746
188 1 -0.032484375 -0.00261666666667 -0.005315625 0.690508
189 1 -0.032484375 -0.00261666666667 -0.004134375 0.612418
190 1 -0.032484375 -0.00261666666667 -0.002953125 0.677
191 1 -0.032484375 -0.00261666666667 -0.001771875 0.603521
192 1 -0.032484375 -0.00261666666667 -0.000590625 0.663666
193 1 -0.032484375 -0.00261666666667 0.000590625 0.594485
194 1 -0.032484375 -0.00261666666667 0.001771875 0.650573
195 1 -0.032484375 -0.00261666666667 0.002953125 0.586271
196 1 -0.032484375 -0.00261666666667 0.004134375 0.638568
197 1 -0.032484375 -0.00261666666667 0.005315625 0.578571
198 1 -0.032484375 -0.00261666666667 0.006496875 0.627476
199 1 -0.032484375 -0.00261666666667 0.007678125 0.571974
200 1 -0.032484375 -0.00261666666667 0.008859375 0.618281
201 1 -0.032484375 -0.00261666666667 0.010040625 0.566641
202 1 -0.032484375 -0.00261666666667 0.011221875 0.610572
203 1 -0.032484375 -0.00261666666667 0.012403125 0.562311
204 1 -0.032484375 -0.00261666666667 0.013584375 0.604846
205 1 -0.032484375 -0.00261666666667 0.014765625 0.558561
206 1 -0.032484375 -0.00261666666667 0.015946875 0.599612
207 1 -0.032484375 -0.00261666666667 0.017128125 0.55515
208 1 -0.032484375 -0.00261666666667 0.018309375 0.594198
209 1 -0.032484375 -0.00125 -0.018309375 0.646947
210 1 -0.032484375 -0.00125 -0.017128125 0.734023
211 1 -0.032484375 -0.00125 -0.015946875 0.644142
212 1 -0.032484375 -0.00125 -0.014765625 0.729079
213 1 -0.032484375 -0.00125 -0.013584375 0.640776
214 1 -0.032484375 -0.00125 -0.012403125 0.722998
215 1 -0.032484375 -0.00125 -0.011221875 0.635656
216 1 -0.032484375 -0.00125 -0.010040625 0.713889
217 1 -0.032484375 -0.00125 -0.008859375 0.628905
218 1 -0.032484375 -0.00125 -0.007678125 0.703117
219 1 -0.032484375 -0.00125 -0.006496875 0.620746
220 1 -0.032484375 -0.00125 -0.005315625 0.690508
221 1 -0.032484375 -0.00125 -0.004134375 0.612418
222 1 -0.032484375 -0.00125 -0.002953125 0.677
223 1 -0.032484375 -0.00125 -0.001771875 0.603521
224 1 -0.032484375 -0.00125 -0.000590625 0.663666
225 1 -0.032484375 -0.00125 0.000590625 0.594485
226 1 -0.032484375 -0.00125 0.001771875 0.650573
227 1 -0.032484375 -0.00125 0.002953125 0.586271
228 1 -0.032484375 -0.00125 0.004134375 0.638568
229 1 -0.032484375 -0.00125 0.005315625 0.578571
230 1 -0.032484375 -0.00125 0.006496875 0.627476
231 1 -0.032484375 -0.00125 0.007678125 0.571974
232 1 -0.032484375 -0.00125 0.008859375 0.618281
233 1 -0.032484375 -0.00125 0.010040625 0.566641
234 1 -0.032484375 -0.00125 0.011221875 0.610572
235 1 -0.032484375 -0.00125 0.012403125 0.562311
236 1 -0.032484375 -0.00125 0.013584375 0.604846
237 1 -0.032484375 -0.00125 0.014765625 0.558561
238 1 -0.032484375 -0.00125 0.015946875 0.599612
239 1 -0.032484375 -0.00125 0.017128125 0.55515
240 1 -0.032484375 -0.00125 0.018309375 0.594198
241 1 -0.032484375 0.000116666666667 -0.018309375 0.646947
242 1 -0.032484375 0.000116666666667 -0.017128125 0.734023
243 1 -0.032484375 0.000116666666667 -0.015946875 0.644142
244 1 -0.032484375 0.000116666666667 -0.014765625 0.729079
245 1 -0.032484375 0.000116666666667 -0.013584375 0.640776
246 1 -0.032484375 0.000116666666667 -0.012403125 0.722998
247 1 -0.032484375 0.000116666666667 -0.011221875 0.635656
248 1 -0.032484375 0.000116666666667 -0.010040625 0.713889
249 1 -0.032484375 0.000116666666667 -0.008859375 0.628905
250 1 -0.032484375 0.000116666666667 -0.007678125 0.703117
251 1 -0.032484375 0.000116666666667 -0.006496875 0.620746
252 1 -0.032484375 0.000116666666667 -0.005315625 0.690508
253 1 -0.032484375 0.000116666666667 -0.004134375 0.612418
254 1 -0.032484375 0.000116666666667 -0.002953125 0.677
255 1 -0.032484375 0.000116666666667 -0.001771875 0.603521
256 1 -0.032484375 0.000116666666667 -0.000590625 0.663666
257 1 -0.032484375 0.000116666666667 0.000590625 0.594485
258 1 -0.032484375 0.000116666666667 0.001771875 0.650573
259 1 -0.032484375 0.000116666666667 0.002953125 0.586271
260 1 -0.032484375 0.000116666666667 0.004134375 0.638568
261 1 -0.032484375 0.000116666666667 0.005315625 0.578571
262 1 -0.032484375 0.000116666666667 0.006496875 0.627476
263 1 -0.032484375 0.000116666666667 0.007678125 0.571974
264 1 -0.032484375 0.000116666666667 0.008859375 0.618281
265 1 -0.032484375 0.000116666666667 0.010040625 0.566641
266 1 -0.032484375 0.000116666666667 0.011221875 0.610572
267 1 -0.032484375 0.000116666666667 0.012403125 0.562311
268 1 -0.032484375 0.000116666666667 0.013584375 0.604846
269 1 -0.032484375 0.000116666666667 0.014765625 0.558561
270 1 -0.032484375 0.000116666666667 0.015946875 0.599612
271 1 -0.032484375 0.000116666666667 0.017128125 0.55515
272 1 -0.032484375 0.000116666666667 0.018309375 0.594198
273 1 -0.031303125 -0.00261666666667 -0.019490625 0.655621
274 1 -0.031303125 -0.00261666666667 -0.018309375 0.616804
275 1 -0.031303125 -0.00261666666667 -0.017128125 0.654351
276 1 -0.031303125 -0.00261666666667 -0.015946875 0.61518
277 1 -0.031303125 -0.00261666666667 -0.014765625 0.651625
278 1 -0.031303125 -0.00261666666667 -0.013584375 0.611916
279 1 -0.031303125 -0.00261666666667 -0.012403125 0.647059
280 1 -0.031303125 -0.00261666666667 -0.011221875 0.607618
281 1 -0.031303125 -0.00261666666667 -0.010040625 0.641101
282 1 -0.031303125 -0.00261666666667 -0.008859375 0.602808
283 1 -0.031303125 -0.00261666666667 -0.007678125 0.633951
284 1 -0.031303125 -0.00261666666667 -0.006496875 0.59784
285 1 -0.031303125 -0.00261666666667 -0.005315625 0.626057
286 1 -0.031303125 -0.00261666666667 -0.004134375 0.591796
287 1 -0.031303125 -0.00261666666667 -0.002953125 0.617217
288 1 -0.031303125 -0.00261666666667 -0.001771875 0.585371
289 1 -0.031303125 -0.00261666666667 -0.000590625 0.608372
290 1 -0.031303125 -0.00261666666667 0.000590625 0.579311
291 1 -0.031303125 -0.00261666666667 0.001771875 0.599535
292 1 -0.031303125 -0.00261666666667 0.002953125 0.573122
293 1 -0.031303125 -0.00261666666667 0.004134375 0.591009
294 1 -0.031303125 -0.00261666666667 0.005315625 0.567697
295 1 -0.031303125 -0.00261666666667 0.006496875 0.583607
296 1 -0.031303125 -0.00261666666667 0.007678125 0.562844
297 1 -0.031303125 -0.00261666666667 0.008859375 0.576783
298 1 -0.031303125 -0.00261666666667 0.010040625 0.559083
299 1 -0.031303125 -0.00261666666667 0.011221875 0.570849
300 1 -0.031303125 -0.00261666666667 0.012403125 0.555842
301 1 -0.031303125 -0.00261666666667 0.013584375 0.565732
302 1 -0.031303125 -0.00261666666667 0.014765625 0.552911
303 1 -0.031303125 -0.00261666666667 0.015946875 0.561561
304 1 -0.031303125 -0.00261666666667 0.017128125 0.550257
305 1 -0.031303125 -0.00261666666667 0.018309375 0.557616
306 1 -0.031303125 -0.00261666666667 0.019490625 0.547859
307 1 -0.031303125 -0.00125 -0.019490625 0.655621
308 1 -0.031303125 -0.00125 -0.018309375 0.616804
309 1 -0.031303125 -0.00125 -0.017128125 0.654351
310 1 -0.031303125 -0.00125 -0.015946875 0.61518
311 1 -0.031303125 -0.00125 -0.014765625 0.651625
312 1 -0.031303125 -0.00125 -0.013584375 0.611916
313 1 -0.031303125 -0.00125 -0.012403125 0.647059
314 1 -0.031303125 -0.00125 -0.011221875 0.607618
315 1 -0.031303125 -0.00125 -0.010040625 0.641101
316 1 -0.031303125 -0.00125 -0.008859375 0.602808
317 1 -0.031303125 -0.00125 -0.007678125 0.633951
318 1 -0.031303125 -0.00125 -0.006496875 0.59784
319 1 -0.031303125 -0.00125 -0.005315625 0.626057
320 1 -0.031303125 -0.00125 -0.004134375 0.591796
321 1 -0.031303125 -0.00125 -0.002953125 0.617217
322 1 -0.031303125 -0.00125 -0.001771875 0.585371
323 1 -0.031303125 -0.00125 -0.000590625 0.608372
324 1 -0.031303125 -0.00125 0.000590625 0.579311
325 1 -0.031303125 -0.00125 0.001771875 0.599535
326 1 -0.031303125 -0.00125 0.002953125 0.573122
327 1 -0.031303125 -0.00125 0.004134375 0.591009
328 1 -0.031303125 -0.00125 0.005315625 0.567697
329 1 -0.031303125 -0.00125 0.006496875 0.583607
330 1 -0.031303125 -0.00125 0.007678125 0.562844
331 1 -0.031303125 -0.00125 0.008859375 0.576783
332 1 -0.031303125 -0.00125 0.010040625 0.559083
333 1 -0.031303125 -0.00125 0.011221875 0.570849
334 1 -0.031303125 -0.00125 0.012403125 0.555842
335 1 -0.031303125 -0.00125 0.013584375 0.565732
336 1 -0.031303125 -0.00125 0.014765625 0.552911
337 1 -0.031303125 -0.00125 0.015946875 0.561561
338 1 -0.031303125 -0.00125 0.017128125 0.550257
339 1 -0.031303125 -0.00125 0.018309375 0.557616
340 1 -0.031303125 -0.00125 0.019490625 0.547859
341 1 -0.031303125 0.000116666666667 -0.019490625 0.655621
342 1 -0.031303125 0.000116666666667 -0.018309375 0.616804
343 1 -0.031303125 0.000116666666667 -0.017128125 0.654351
344 1 -0.031303125 0.000116666666667 -0.015946875 0.61518
345 1 -0.031303125 0.000116666666667 -0.014765625 0.651625
346 1 -0.031303125 0.000116666666667 -0.013584375 0.611916
347 1 -0.031303125 0.000116666666667 -0.012403125 0.647059
348 1 -0.031303125 0.000116666666667 -0.011221875 0.607618
349 1 -0.031303125 0.000116666666667 -0.010040625 0.641101
350 1 -0.031303125 0.000116666666667 -0.008859375 0.602808
351 1 -0.031303125 0.000116666666667 -0.007678125 0.633951
352 1 -0.031303125 0.000116666666667 -0.006496875 0.59784
353 1 -0.031303125 0.000116666666667 -0.005315625 0.626057
354 1 -0.031303125 0.000116666666667 -0.004134375 0.591796
355 1 -0.031303125 0.000116666666667 -0.002953125 0.617217
356 1 -0.031303125 0.000116666666667 -0.001771875 0.585371
357 1 -0.031303125 0.000116666666667 -0.000590625 0.608372
358 1 -0.031303125 0.000116666666667 0.000590625 0.579311
359 1 -0.031303125 0.000116666666667 0.001771875 0.599535
360 1 -0.031303125 0.000116666666667 0.002953125 0.573122
361 1 -0.031303125 0.000116666666667 0.004134375 0.591009
362 1 -0.031303125 0.000116666666667 0.005315625 0.567697
363 1 -0.031303125 0.000116666666667 0.006496875 0.583607
364 1 -0.031303125 0.000116666666667 0.007678125 0.562844
365 1 -0.031303125 0.000116666666667 0.008859375 0.576783
366 1 -0.031303125 0.000116666666667 0.010040625 0.559083
367 1 -0.031303125 0.000116666666667 0.011221875 0.570849
368 1 -0.031303125 0.000116666666667 0.012403125 0.555842
369 1 -0.031303125 0.000116666666667 0.013584375 0.565732
370 1 -0.031303125 0.000116666666667 0.014765625 0.552911
371 1 -0.031303125 0.000116666666667 0.015946875 0.561561
372 1 -0.031303125 0.000116666666667 0.017128125 0.550257
373 1 -0.031303125 0.000116666666667 0.018309375 0.557616
374 1 -0.031303125 0.000116666666667 0.019490625 0.547859
375 1 -0.030121875 -0.00261666666667 -0.020671875 0.670506
376 1 -0.030121875 -0.00261666666667 -0.019490625 0.763419
377 1 -0.030121875 -0.00261666666667 -0.018309375 0.669291
378 1 -0.030121875 -0.00261666666667 -0.017128125 0.762337
379 1 -0.030121875 -0.00261666666667 -0.015946875 0.667111
380 1 -0.030121875 -0.00261666666667 -0.014765625 0.758552
381 1 -0.030121875 -0.00261666666667 -0.013584375 0.664058
382 1 -0.030121875 -0.00261666666667 -0.012403125 0.753203
383 1 -0.030121875 -0.00261666666667 -0.011221875 0.658974
384 1 -0.030121875 -0.00261666666667 -0.010040625 0.744541
385 1 -0.030121875 -0.00261666666667 -0.008859375 0.651847
386 1 -0.030121875 -0.00261666666667 -0.007678125 0.733892
387 1 -0.030121875 -0.00261666666667 -0.006496875 0.643077
388 1 -0.030121875 -0.00261666666667 -0.005315625 0.720617
389 1 -0.030121875 -0.00261666666667 -0.004134375 0.633905
390 1 -0.030121875 -0.00261666666667 -0.002953125 0.706017
391 1 -0.030121875 -0.00261666666667 -0.001771875 0.623966
392 1 -0.030121875 -0.00261666666667 -0.000590625 0.690609
393 1 -0.030121875 -0.00261666666667 0.000590625 0.613287
394 1 -0.030121875 -0.00261666666667 0.001771875 0.675154
395 1 -0.030121875 -0.00261666666667 0.002953125 0.60324
396 1 -0.030121875 -0.00261666666667 0.004134375 0.660623
397 1 -0.030121875 -0.00261666666667 0.005315625 0.593705
398 1 -0.030121875 -0.00261666666667 0.006496875 0.646809
399 1 -0.030121875 -0.00261666666667 0.007678125 0.585349
400 1 -0.030121875 -0.00261666666667 0.008859375 0.634726
401 1 -0.030121875 -0.00261666666667 0.010040625 0.578215
402 1 -0.030121875 -0.00261666666667 0.011221875 0.624113
403 1 -0.030121875 -0.00261666666667 0.012403125 0.572278
404 1 -0.030121875 -0.00261666666667 0.013584375 0.615764
405 1 -0.030121875 -0.00261666666667 0.014765625 0.567073
406 1 -0.030121875 -0.00261666666667 0.015946875 0.608156
407 1 -0.030121875 -0.00261666666667 0.017128125 0.56259
408 1 -0.030121875 -0.00261666666667 0.018309375 0.600968
409 1 -0.030121875 -0.00261666666667 0.019490625 0.558419
410 1 -0.030121875 -0.00261666666667 0.020671875 0.593729
411 1 -0.030121875 -0.00125 -0.020671875 0.670506
412 1 -0.030121875 -0.00125 -0.019490625 0.763419
413 1 -0.030121875 -0.00125 -0.018309375 0.669291
414 1 -0.030121875 -0.00125 -0.017128125 0.762337
415 1 -0.030121875 -0.00125 -0.015946875 0.667111
416 1 -0.030121875 -0.00125 -0.014765625 0.758552
417 1 -0.030121875 -0.00125 -0.013584375 0.664058
418 1 -0.030121875 -0.00125 -0.012403125 0.753203
419 1 -0.030121875 -0.00125 -0.011221875 0.658974
420 1 -0.030121875 -0.00125 -0.010040625 0.744541
421 1 -0.030121875 -0.00125 -0.008859375 0.651847
422 1 -0.030121875 -0.00125 -0.007678125 0.733892
423 1 -0.030121875 -0.00125 -0.006496875 0.643077
424 1 -0.030121875 -0.00125 -0.005315625 0.720617
425 1 -0.030121875 -0.00125 -0.004134375 0.633905
426 1 -0.030121875 -0.00125 -0.002953125 0.706017
427 1 -0.030121875 -0.00125 -0.001771875 0.623966
428 1 -0.030121875 -0.00125 -0.000590625 0.690609
429 1 -0.030121875 -0.00125 0.000590625 0.613287
430 1 -0.030121875 -0.00125 0.001771875 0.675154
431 1 -0.030121875 -0.00125 0.002953125 0.60324
432 1 -0.030121875 -0.00125 0.004134375 0.660623
433 1 -0.030121875 -0.00125 0.005315625 0.593705
434 1 -0.030121875 -0.00125 0.006496875 0.646809
435 1 -0.030121875 -0.00125 0.007678125 0.585349
436 1 -0.030121875 -0.00125 0.008859375 0.634726
437 1 -0.030121875 -0.00125 0.010040625 0.578215
438 1 -0.030121875 -0.00125 0.011221875 0.624113
439 1 -0.030121875 -0.00125 0.012403125 0.572278
440 1 -0.030121875 -0.00125 0.013584375 0.615764
441 1 -0.030121875 -0.00125 0.014765625 0.567073
442 1 -0.030121875 -0.00125 0.015946875 0.608156
443 1 -0.030121875 -0.00125 0.017128125 0.56259
444 1 -0.030121875 -0.00125 0.018309375 0.600968
445 1 -0.030121875 -0.00125 0.019490625 0.558419
446 1 -0.030121875 -0.00125 0.020671875 0.593729
447 1 -0.030121875 0.000116666666667 -0.020671875 0.670506
448 1 -0.030121875 0.000116666666667 -0.019490625 0.763419
449 1 -0.030121875 0.000116666666667 -0.018309375 0.669291
450 1 -0.030121875 0.000116666666667 -0.017128125 0.762337
451 1 -0.030121875 0.000116666666667 -0.015946875 0.667111
452 1 -0.030121875 0.000116666666667 -0.014765625 0.758552
453 1 -0.030121875 0.000116666666667 -0.013584375 0.664058
454 1 -0.030121875 0.000116666666667 -0.012403125 0.753203
455 1 -0.030121875 0.000116666666667 -0.011221875 0.658974
456 1 -0.030121875 0.000116666666667 -0.010040625 0.744541
457 1 -0.030121875 0.000116666666667 -0.008859375 0.651847
458 1 -0.030121875 0.000116666666667 -0.007678125 0.733892
459 1 -0.030121875 0.000116666666667 -0.006496875 0.643077
460 1 -0.030121875 0.000116666666667 -0.005315625 0.720617
461 1 -0.030121875 0.000116666666667 -0.004134375 0.633905
462 1 -0.030121875 0.000116666666667 -0.002953125 0.706017
463 1 -0.030121875 0.000116666666667 -0.001771875 0.623966
464 1 -0.030121875 0.000116666666667 -0.000590625 0.690609
465 1 -0.030121875 0.000116666666667 0.000590625 0.613287
466 1 -0.030121875 0.000116666666667 0.001771875 0.675154
467 1 -0.030121875 0.000116666666667 0.002953125 0.60324
468 1 -0.030121875 0.000116666666667 0.004134375 0.660623
469 1 -0.030121875 0.000116666666667 0.005315625 0.593705
470 1 -0.030121875 0.000116666666667 0.006496875 0.646809
471 1 -0.030121875 0.000116666666667 0.007678125 0.585349
472 1 -0.030121875 0.000116666666667 0.008859375 0.634726
473 1 -0.030121875 0.000116666666667 0.010040625 0.578215
474 1 -0.030121875 0.000116666666667 0.011221875 0.624113
475 1 -0.030121875 0.000116666666667 0.012403125 0.572278
476 1 -0.030121875 0.000116666666667 0.013584375 0.615764
477 1 -0.030121875 0.000116666666667 0.014765625 0.567073
478 1 -0.030121875 0.000116666666667 0.015946875 0.608156
479 1 -0.030121875 0.000116666666667 0.017128125 0.56259
480 1 -0.030121875 0.000116666666667 0.018309375 0.600968
481 1 -0.030121875 0.000116666666667 0.019490625 0.558419
482 1 -0.030121875 0.000116666666667 0.020671875 0.593729
483 1 -0.028940625 -0.00261666666667 -0.021853125 0.673903
484 1 -0.028940625 -0.00261666666667 -0.020671875 0.632058
485 1 -0.028940625 -0.00261666666667 -0.019490625 0.675482
486 1 -0.028940625 -0.00261666666667 -0.018309375 0.631639
487 1 -0.028940625 -0.00261666666667 -0.017128125 0.675041
488 1 -0.028940625 -0.00261666666667 -0.015946875 0.630438
489 1 -0.028940625 -0.00261666666667 -0.014765625 0.672775
490 1 -0.028940625 -0.00261666666667 -0.013584375 0.627112
491 1 -0.028940625 -0.00261666666667 -0.012403125 0.668175
492 1 -0.028940625 -0.00261666666667 -0.011221875 0.623331
493 1 -0.028940625 -0.00261666666667 -0.010040625 0.662152
494 1 -0.028940625 -0.00261666666667 -0.008859375 0.618559
495 1 -0.028940625 -0.00261666666667 -0.007678125 0.654657
496 1 -0.028940625 -0.00261666666667 -0.006496875 0.613341
497 1 -0.028940625 -0.00261666666667 -0.005315625 0.646121
498 1 -0.028940625 -0.00261666666667 -0.004134375 0.606603
499 1 -0.028940625 -0.00261666666667 -0.002953125 0.636135
500 1 -0.028940625 -0.00261666666667 -0.001771875 0.598964
501 1 -0.028940625 -0.00261666666667 -0.000590625 0.625923
502 1 -0.028940625 -0.00261666666667 0.000590625 0.591477
503 1 -0.028940625 -0.00261666666667 0.001771875 0.615442
504 1 -0.028940625 -0.00261666666667 0.002953125 0.583782
505 1 -0.028940625 -0.00261666666667 0.004134375 0.605188
506 1 -0.028940625 -0.00261666666667 0.005315625 0.576927
507 1 -0.028940625 -0.00261666666667 0.006496875 0.596162
508 1 -0.028940625 -0.00261666666667 0.007678125 0.570695
509 1 -0.028940625 -0.00261666666667 0.008859375 0.587686
510 1 -0.028940625 -0.00261666666667 0.010040625 0.565713
511 1 -0.028940625 -0.00261666666667 0.011221875 0.580185
512 1 -0.028940625 -0.00261666666667 0.012403125 0.561393
513 1 -0.028940625 -0.00261666666667 0.013584375 0.573569
514 1 -0.028940625 -0.00261666666667 0.014765625 0.557551
515 1 -0.028940625 -0.00261666666667 0.015946875 0.567948
516 1 -0.028940625 -0.00261666666667 0.017128125 0.553949
517 1 -0.028940625 -0.00261666666667 0.018309375 0.562748
518 1 -0.028940625 -0.00261666666667 0.019490625 0.550918
519 1 -0.028940625 -0.00261666666667 0.020671875 0.558166
520 1 -0.028940625 -0.00261666666667 0.021853125 0.547929
521 1 -0.028940625 -0.00125 -0.021853125 0.673903
522 1 -0.028940625 -0.00125 -0.020671875 0.632058
523 1 -0.028940625 -0.00125 -0.019490625 0.675482
524 1 -0.028940625 -0.00125 -0.018309375 0.631639
525 1 -0.028940625 -0.00125 -0.017128125 0.675041
526 1 -0.028940625 -0.00125 -0.015946875 0.630438
527 1 -0.028940625 -0.00125 -0.014765625 0.672775
528 1 -0.028940625 -0.00125 -0.013584375 0.627112
529 1 -0.028940625 -0.00125 -0.012403125 0.668175
530 1 -0.028940625 -0.00125 -0.011221875 0.623331
531 1 -0.028940625 -0.00125 -0.010040625 0.662152
532 1 -0.028940625 -0.00125 -0.008859375 0.618559
533 1 -0.028940625 -0.00125 -0.007678125 0.654657
534 1 -0.028940625 -0.00125 -0.006496875 0.613341
535 1 -0.028940625 -0.00125 -0.005315625 0.646121
536 1 -0.028940625 -0.00125 -0.004134375 0.606603
537 1 -0.028940625 -0.00125 -0.002953125 0.636135
538 1 -0.028940625 -0.00125 -0.001771875 0.598964