ITEM: TIMESTEP
0
ITEM: NUMBER OF ATOMS
9240
ITEM: BOX BOUNDS ss ss ss
-3.7007399999999996e-02 3.7007399999999996e-02
-2.0002499999999999e-03 2.5000000000000004e-07
-3.7007399999999996e-02 3.7007399999999996e-02
ITEM: ATOMS id type x y z c_1
0 1 -0.037209375 -0.00261666666667 -0.000590625 0.30142
1 1 -0.037209375 -0.00125 -0.000590625 0.30142
2 1 -0.037209375 0.000116666666667 -0.000590625 0.30142
3 1 -0.036028125 -0.00261666666667 -0.007678125 0.237035
4 1 -0.036028125 -0.00261666666667 -0.006496875 0.146114
5 1 -0.036028125 -0.00261666666667 -0.005315625 0.253771
6 1 -0.036028125 -0.00261666666667 -0.004134375 0.162978
7 1 -0.036028125 -0.00261666666667 -0.002953125 0.270416
8 1 -0.036028125 -0.00261666666667 -0.001771875 0.180922
9 1 -0.036028125 -0.00261666666667 -0.000590625 0.28847
10 1 -0.036028125 -0.00261666666667 0.000590625 0.195941
11 1 -0.036028125 -0.00261666666667 0.001771875 0.301389
12 1 -0.036028125 -0.00261666666667 0.002953125 0.200752
13 1 -0.036028125 -0.00261666666667 0.004134375 0.299199
14 1 -0.036028125 -0.00261666666667 0.005315625 0.188769
15 1 -0.036028125 -0.00261666666667 0.006496875 0.279319
16 1 -0.036028125 -0.00261666666667 0.007678125 0.164338
17 1 -0.036028125 -0.00125 -0.007678125 0.237035
18 1 -0.036028125 -0.00125 -0.006496875 0.146114
19 1 -0.036028125 -0.00125 -0.005315625 0.253771
20 1 -0.036028125 -0.00125 -0.004134375 0.162978
21 1 -0.036028125 -0.00125 -0.002953125 0.270416
22 1 -0.036028125 -0.00125 -0.001771875 0.180922
23 1 -0.036028125 -0.00125 -0.000590625 0.28847
24 1 -0.036028125 -0.00125 0.000590625 0.195941
25 1 -0.036028125 -0.00125 0.001771875 0.301389
26 1 -0.036028125 -0.00125 0.002953125 0.200752
27 1 -0.036028125 -0.00125 0.004134375 0.299199
28 1 -0.036028125 -0.00125 0.005315625 0.188769
29 1 -0.036028125 -0.00125 0.006496875 0.279319
30 1 -0.036028125 -0.00125 0.007678125 0.164338
31 1 -0.036028125 0.000116666666667 -0.007678125 0.237035
32 1 -0.036028125 0.000116666666667 -0.006496875 0.146114
33 1 -0.036028125 0.000116666666667 -0.005315625 0.253771
34 1 -0.036028125 0.000116666666667 -0.004134375 0.162978
35 1 -0.036028125 0.000116666666667 -0.002953125 0.270416
36 1 -0.036028125 0.000116666666667 -0.001771875 0.180922
37 1 -0.036028125 0.000116666666667 -0.000590625 0.28847
38 1 -0.036028125 0.000116666666667 0.000590625 0.195941
39 1 -0.036028125 0.000116666666667 0.001771875 0.301389
40 1 -0.036028125 0.000116666666667 0.002953125 0.200752
41 1 -0.036028125 0.000116666666667 0.004134375 0.299199
42 1 -0.036028125 0.000116666666667 0.005315625 0.188769
43 1 -0.036028125 0.000116666666667 0.006496875 0.279319
44 1 -0.036028125 0.000116666666667 0.007678125 0.164338
45 1 -0.034846875 -0.00261666666667 -0.011221875 0.113759
46 1 -0.034846875 -0.00261666666667 -0.010040625 0.164064
47 1 -0.034846875 -0.00261666666667 -0.008859375 0.139313
48 1 -0.034846875 -0.00261666666667 -0.007678125 0.185204
49 1 -0.034846875 -0.00261666666667 -0.006496875 0.161606
50 1 -0.034846875 -0.00261666666667 -0.005315625 0.201627
51 1 -0.034846875 -0.00261666666667 -0.004134375 0.18264
52 1 -0.034846875 -0.00261666666667 -0.002953125 0.218523
53 1 -0.034846875 -0.00261666666667 -0.001771875 0.205485
54 1 -0.034846875 -0.00261666666667 -0.000590625 0.236067
55 1 -0.034846875 -0.00261666666667 0.000590625 0.227852
56 1 -0.034846875 -0.00261666666667 0.001771875 0.246315
57 1 -0.034846875 -0.00261666666667 0.002953125 0.239121
58 1 -0.034846875 -0.00261666666667 0.004134375 0.239177
59 1 -0.034846875 -0.00261666666667 0.005315625 0.231668
60 1 -0.034846875 -0.00261666666667 0.006496875 0.21762
61 1 -0.034846875 -0.00261666666667 0.007678125 0.201531
62 1 -0.034846875 -0.00261666666667 0.008859375 0.18253
63 1 -0.034846875 -0.00261666666667 0.010040625 0.160324
64 1 -0.034846875 -0.00261666666667 0.011221875 0.146407
65 1 -0.034846875 -0.00125 -0.011221875 0.113759
66 1 -0.034846875 -0.00125 -0.010040625 0.164064
67 1 -0.034846875 -0.00125 -0.008859375 0.139313
68 1 -0.034846875 -0.00125 -0.007678125 0.185204
69 1 -0.034846875 -0.00125 -0.006496875 0.161606
70 1 -0.034846875 -0.00125 -0.005315625 0.201627
71 1 -0.034846875 -0.00125 -0.004134375 0.18264
72 1 -0.034846875 -0.00125 -0.002953125 0.218523
73 1 -0.034846875 -0.00125 -0.001771875 0.205485
74 1 -0.034846875 -0.00125 -0.000590625 0.236067
75 1 -0.034846875 -0.00125 0.000590625 0.227852
76 1 -0.034846875 -0.00125 0.001771875 0.246315
77 1 -0.034846875 -0.00125 0.002953125 0.239121
78 1 -0.034846875 -0.00125 0.004134375 0.239177
79 1 -0.034846875 -0.00125 0.005315625 0.231668
80 1 -0.034846875 -0.00125 0.006496875 0.21762
81 1 -0.034846875 -0.00125 0.007678125 0.201531
82 1 -0.034846875 -0.00125 0.008859375 0.18253
83 1 -0.034846875 -0.00125 0.010040625 0.160324
84 1 -0.034846875 -0.00125 0.011221875 0.146407
85 1 -0.034846875 0.000116666666667 -0.011221875 0.113759
86 1 -0.034846875 0.000116666666667 -0.010040625 0.164064
87 1 -0.034846875 0.000116666666667 -0.008859375 0.139313
88 1 -0.034846875 0.000116666666667 -0.007678125 0.185204
89 1 -0.034846875 0.000116666666667 -0.006496875 0.161606
90 1 -0.034846875 0.000116666666667 -0.005315625 0.201627
91 1 -0.034846875 0.000116666666667 -0.004134375 0.18264
92 1 -0.034846875 0.000116666666667 -0.002953125 0.218523
93 1 -0.034846875 0.000116666666667 -0.001771875 0.205485
94 1 -0.034846875 0.000116666666667 -0.000590625 0.236067
95 1 -0.034846875 0.000116666666667 0.000590625 0.227852
96 1 -0.034846875 0.000116666666667 0.001771875 0.246315
97 1 -0.034846875 0.000116666666667 0.002953125 0.239121
98 1 -0.034846875 0.000116666666667 0.004134375 0.239177
99 1 -0.034846875 0.000116666666667 0.005315625 0.231668
100 1 -0.034846875 0.000116666666667 0.006496875 0.21762
101 1 -0.034846875 0.000116666666667 0.007678125 0.201531
102 1 -0.034846875 0.000116666666667 0.008859375 0.18253
103 1 -0.034846875 0.000116666666667 0.010040625 0.160324
104 1 -0.034846875 0.000116666666667 0.011221875 0.146407
105 1 -0.033665625 -0.00261666666667 -0.013584375 0.136141
106 1 -0.033665625 -0.00261666666667 -0.012403125 0.252598
107 1 -0.033665625 -0.00261666666667 -0.011221875 0.188212
108 1 -0.033665625 -0.00261666666667 -0.010040625 0.299264
109 1 -0.033665625 -0.00261666666667 -0.008859375 0.234583
110 1 -0.033665625 -0.00261666666667 -0.007678125 0.332877
111 1 -0.033665625 -0.00261666666667 -0.006496875 0.272746
112 1 -0.033665625 -0.00261666666667 -0.005315625 0.360776
113 1 -0.033665625 -0.00261666666667 -0.004134375 0.304911
114 1 -0.033665625 -0.00261666666667 -0.002953125 0.384528
115 1 -0.033665625 -0.00261666666667 -0.001771875 0.336784
116 1 -0.033665625 -0.00261666666667 -0.000590625 0.409335
117 1 -0.033665625 -0.00261666666667 0.000590625 0.363566
118 1 -0.033665625 -0.00261666666667 0.001771875 0.427604
119 1 -0.033665625 -0.00261666666667 0.002953125 0.374707
120 1 -0.033665625 -0.00261666666667 0.004134375 0.427576
121 1 -0.033665625 -0.00261666666667 0.005315625 0.359549
122 1 -0.033665625 -0.00261666666667 0.006496875 0.405386
123 1 -0.033665625 -0.00261666666667 0.007678125 0.318721
124 1 -0.033665625 -0.00261666666667 0.008859375 0.361335
125 1 -0.033665625 -0.00261666666667 0.010040625 0.255778
126 1 -0.033665625 -0.00261666666667 0.011221875 0.296781
127 1 -0.033665625 -0.00261666666667 0.012403125 0.186984
128 1 -0.033665625 -0.00261666666667 0.013584375 0.228778
129 1 -0.033665625 -0.00125 -0.013584375 0.136141
130 1 -0.033665625 -0.00125 -0.012403125 0.252598
131 1 -0.033665625 -0.00125 -0.011221875 0.188212
132 1 -0.033665625 -0.00125 -0.010040625 0.299264
133 1 -0.033665625 -0.00125 -0.008859375 0.234583
134 1 -0.033665625 -0.00125 -0.007678125 0.332877
135 1 -0.033665625 -0.00125 -0.006496875 0.272746
136 1 -0.033665625 -0.00125 -0.005315625 0.360776
137 1 -0.033665625 -0.00125 -0.004134375 0.304911
138 1 -0.033665625 -0.00125 -0.002953125 0.384528
139 1 -0.033665625 -0.00125 -0.001771875 0.336784
140 1 -0.033665625 -0.00125 -0.000590625 0.409335
141 1 -0.033665625 -0.00125 0.000590625 0.363566
142 1 -0.033665625 -0.00125 0.001771875 0.427604
143 1 -0.033665625 -0.00125 0.002953125 0.374707
144 1 -0.033665625 -0.00125 0.004134375 0.427576
145 1 -0.033665625 -0.00125 0.005315625 0.359549
146 1 -0.033665625 -0.00125 0.006496875 0.405386
147 1 -0.033665625 -0.00125 0.007678125 0.318721
148 1 -0.033665625 -0.00125 0.008859375 0.361335
149 1 -0.033665625 -0.00125 0.010040625 0.255778
150 1 -0.033665625 -0.00125 0.011221875 0.296781
151 1 -0.033665625 -0.00125 0.012403125 0.186984
152 1 -0.033665625 -0.00125 0.013584375 0.228778
153 1 -0.033665625 0.000116666666667 -0.013584375 0.136141
154 1 -0.033665625 0.000116666666667 -0.012403125 0.252598
155 1 -0.033665625 0.000116666666667 -0.011221875 0.188212
156 1 -0.033665625 0.000116666666667 -0.010040625 0.299264
157 1 -0.033665625 0.000116666666667 -0.008859375 0.234583
158 1 -0.033665625 0.000116666666667 -0.007678125 0.332877
159 1 -0.033665625 0.000116666666667 -0.006496875 0.272746
160 1 -0.033665625 0.000116666666667 -0.005315625 0.360776
161 1 -0.033665625 0.000116666666667 -0.004134375 0.304911
162 1 -0.033665625 0.000116666666667 -0.002953125 0.384528
163 1 -0.033665625 0.000116666666667 -0.001771875 0.336784
164 1 -0.033665625 0.000116666666667 -0.000590625 0.409335
165 1 -0.033665625 0.000116666666667 0.000590625 0.363566
166 1 -0.033665625 0.000116666666667 0.001771875 0.427604
167 1 -0.033665625 0.000116666666667 0.002953125 0.374707
168 1 -0.033665625 0.000116666666667 0.004134375 0.427576
169 1 -0.033665625 0.000116666666667 0.005315625 0.359549
170 1 -0.033665625 0.000116666666667 0.006496875 0.405386
171 1 -0.033665625 0.000116666666667 0.007678125 0.318721
172 1 -0.033665625 0.000116666666667 0.008859375 0.361335
173 1 -0.033665625 0.000116666666667 0.010040625 0.255778
174 1 -0.033665625 0.000116666666667 0.011221875 0.296781
175 1 -0.033665625 0.000116666666667 0.012403125 0.186984
176 1 -0.033665625 0.000116666666667 0.013584375 0.228778
177 1 -0.032484375 -0.00261666666667 -0.018309375 0.076584
178 1 -0.032484375 -0.00261666666667 -0.017128125 0.132073
179 1 -0.032484375 -0.00261666666667 -0.015946875 0.130199
180 1 -0.032484375 -0.00261666666667 -0.014765625 0.190929
181 1 -0.032484375 -0.00261666666667 -0.013584375 0.204834
182 1 -0.032484375 -0.00261666666667 -0.012403125 0.253031
183 1 -0.032484375 -0.00261666666667 -0.011221875 0.275921
184 1 -0.032484375 -0.00261666666667 -0.010040625 0.299433
185 1 -0.032484375 -0.00261666666667 -0.008859375 0.33369
186 1 -0.032484375 -0.00261666666667 -0.007678125 0.334567
187 1 -0.032484375 -0.00261666666667 -0.006496875 0.373966
188 1 -0.032484375 -0.00261666666667 -0.005315625 0.357494
189 1 -0.032484375 -0.00261666666667 -0.004134375 0.406209
190 1 -0.032484375 -0.00261666666667 -0.002953125 0.374866
191 1 -0.032484375 -0.00261666666667 -0.001771875 0.435163
192 1 -0.032484375 -0.00261666666667 -0.000590625 0.393788
193 1 -0.032484375 -0.00261666666667 0.000590625 0.462768
194 1 -0.032484375 -0.00261666666667 0.001771875 0.407645
195 1 -0.032484375 -0.00261666666667 0.002953125 0.480532
196 1 -0.032484375 -0.00261666666667 0.004134375 0.403076
197 1 -0.032484375 -0.00261666666667 0.005315625 0.484985
198 1 -0.032484375 -0.00261666666667 0.006496875 0.384937
199 1 -0.032484375 -0.00261666666667 0.007678125 0.454778
200 1 -0.032484375 -0.00261666666667 0.008859375 0.340653
201 1 -0.032484375 -0.00261666666667 0.010040625 0.3864
202 1 -0.032484375 -0.00261666666667 0.011221875 0.273602
203 1 -0.032484375 -0.00261666666667 0.012403125 0.295148
204 1 -0.032484375 -0.00261666666667 0.013584375 0.198536
205 1 -0.032484375 -0.00261666666667 0.014765625 0.198649
206 1 -0.032484375 -0.00261666666667 0.015946875 0.13485
207 1 -0.032484375 -0.00261666666667 0.017128125 0.123397
208 1 -0.032484375 -0.00261666666667 0.018309375 0.0910972
209 1 -0.032484375 -0.00125 -0.018309375 0.076584
210 1 -0.032484375 -0.00125 -0.017128125 0.132073
211 1 -0.032484375 -0.00125 -0.015946875 0.130199
212 1 -0.032484375 -0.00125 -0.014765625 0.190929
213 1 -0.032484375 -0.00125 -0.013584375 0.204834
214 1 -0.032484375 -0.00125 -0.012403125 0.253031
215 1 -0.032484375 -0.00125 -0.011221875 0.275921
216 1 -0.032484375 -0.00125 -0.010040625 0.299433
217 1 -0.032484375 -0.00125 -0.008859375 0.33369
218 1 -0.032484375 -0.00125 -0.007678125 0.334567
219 1 -0.032484375 -0.00125 -0.006496875 0.373966
220 1 -0.032484375 -0.00125 -0.005315625 0.357494
221 1 -0.032484375 -0.00125 -0.004134375 0.406209
222 1 -0.032484375 -0.00125 -0.002953125 0.374866
223 1 -0.032484375 -0.00125 -0.001771875 0.435163
224 1 -0.032484375 -0.00125 -0.000590625 0.393788
225 1 -0.032484375 -0.00125 0.000590625 0.462768
226 1 -0.032484375 -0.00125 0.001771875 0.407645
227 1 -0.032484375 -0.00125 0.002953125 0.480532
228 1 -0.032484375 -0.00125 0.004134375 0.403076
229 1 -0.032484375 -0.00125 0.005315625 0.484985
230 1 -0.032484375 -0.00125 0.006496875 0.384937
231 1 -0.032484375 -0.00125 0.007678125 0.454778
232 1 -0.032484375 -0.00125 0.008859375 0.340653
233 1 -0.032484375 -0.00125 0.010040625 0.3864
234 1 -0.032484375 -0.00125 0.011221875 0.273602
235 1 -0.032484375 -0.00125 0.012403125 0.295148
236 1 -0.032484375 -0.00125 0.013584375 0.198536
237 1 -0.032484375 -0.00125 0.014765625 0.198649
238 1 -0.032484375 -0.00125 0.015946875 0.13485
239 1 -0.032484375 -0.00125 0.017128125 0.123397
240 1 -0.032484375 -0.00125 0.018309375 0.0910972
241 1 -0.032484375 0.000116666666667 -0.018309375 0.076584
242 1 -0.032484375 0.000116666666667 -0.017128125 0.132073
243 1 -0.032484375 0.000116666666667 -0.015946875 0.130199
244 1 -0.032484375 0.000116666666667 -0.014765625 0.190929
245 1 -0.032484375 0.000116666666667 -0.013584375 0.204834
246 1 -0.032484375 0.000116666666667 -0.012403125 0.253031
247 1 -0.032484375 0.000116666666667 -0.011221875 0.275921
248 1 -0.032484375 0.000116666666667 -0.010040625 0.299433
249 1 -0.032484375 0.000116666666667 -0.008859375 0.33369
250 1 -0.032484375 0.000116666666667 -0.007678125 0.334567
251 1 -0.032484375 0.000116666666667 -0.006496875 0.373966
252 1 -0.032484375 0.000116666666667 -0.005315625 0.357494
253 1 -0.032484375 0.000116666666667 -0.004134375 0.406209
254 1 -0.032484375 0.000116666666667 -0.002953125 0.374866
255 1 -0.032484375 0.000116666666667 -0.001771875 0.435163
256 1 -0.032484375 0.000116666666667 -0.000590625 0.393788
257 1 -0.032484375 0.000116666666667 0.000590625 0.462768
258 1 -0.032484375 0.000116666666667 0.001771875 0.407645
259 1 -0.032484375 0.000116666666667 0.002953125 0.480532
260 1 -0.032484375 0.000116666666667 0.004134375 0.403076
261 1 -0.032484375 0.000116666666667 0.005315625 0.484985
262 1 -0.032484375 0.000116666666667 0.006496875 0.384937
263 1 -0.032484375 0.000116666666667 0.007678125 0.454778
264 1 -0.032484375 0.000116666666667 0.008859375 0.340653
265 1 -0.032484375 0.000116666666667 0.010040625 0.3864
266 1 -0.032484375 0.000116666666667 0.011221875 0.273602
267 1 -0.032484375 0.000116666666667 0.012403125 0.295148
268 1 -0.032484375 0.000116666666667 0.013584375 0.198536
269 1 -0.032484375 0.000116666666667 0.014765625 0.198649
270 1 -0.032484375 0.000116666666667 0.015946875 0.13485
271 1 -0.032484375 0.000116666666667 0.017128125 0.123397
272 1 -0.032484375 0.000116666666667 0.018309375 0.0910972
273 1 -0.031303125 -0.00261666666667 -0.019490625 0.185748
274 1 -0.031303125 -0.00261666666667 -0.018309375 0.15308
275 1 -0.031303125 -0.00261666666667 -0.017128125 0.267615
276 1 -0.031303125 -0.00261666666667 -0.015946875 0.258894
277 1 -0.031303125 -0.00261666666667 -0.014765625 0.358787
278 1 -0.031303125 -0.00261666666667 -0.013584375 0.369938
279 1 -0.031303125 -0.00261666666667 -0.012403125 0.433814
280 1 -0.031303125 -0.00261666666667 -0.011221875 0.457249
281 1 -0.031303125 -0.00261666666667 -0.010040625 0.480473
282 1 -0.031303125 -0.00261666666667 -0.008859375 0.509978
283 1 -0.031303125 -0.00261666666667 -0.007678125 0.508377
284 1 -0.031303125 -0.00261666666667 -0.006496875 0.542239
285 1 -0.031303125 -0.00261666666667 -0.005315625 0.526521
286 1 -0.031303125 -0.00261666666667 -0.004134375 0.558742
287 1 -0.031303125 -0.00261666666667 -0.002953125 0.540087
288 1 -0.031303125 -0.00261666666667 -0.001771875 0.573403
289 1 -0.031303125 -0.00261666666667 -0.000590625 0.557241
290 1 -0.031303125 -0.00261666666667 0.000590625 0.590075
291 1 -0.031303125 -0.00261666666667 0.001771875 0.573366
292 1 -0.031303125 -0.00261666666667 0.002953125 0.605072
293 1 -0.031303125 -0.00261666666667 0.004134375 0.580623
294 1 -0.031303125 -0.00261666666667 0.005315625 0.611131
295 1 -0.031303125 -0.00261666666667 0.006496875 0.574296
296 1 -0.031303125 -0.00261666666667 0.007678125 0.596267
297 1 -0.031303125 -0.00261666666667 0.008859375 0.545583
298 1 -0.031303125 -0.00261666666667 0.010040625 0.547304
299 1 -0.031303125 -0.00261666666667 0.011221875 0.485144
300 1 -0.031303125 -0.00261666666667 0.012403125 0.459253
301 1 -0.031303125 -0.00261666666667 0.013584375 0.402308
302 1 -0.031303125 -0.00261666666667 0.014765625 0.340905
303 1 -0.031303125 -0.00261666666667 0.015946875 0.303429
304 1 -0.031303125 -0.00261666666667 0.017128125 0.224238
305 1 -0.031303125 -0.00261666666667 0.018309375 0.214985
306 1 -0.031303125 -0.00261666666667 0.019490625 0.140307
307 1 -0.031303125 -0.00125 -0.019490625 0.185748
308 1 -0.031303125 -0.00125 -0.018309375 0.15308
309 1 -0.031303125 -0.00125 -0.017128125 0.267615
310 1 -0.031303125 -0.00125 -0.015946875 0.258894
311 1 -0.031303125 -0.00125 -0.014765625 0.358787
312 1 -0.031303125 -0.00125 -0.013584375 0.369938
313 1 -0.031303125 -0.00125 -0.012403125 0.433814
314 1 -0.031303125 -0.00125 -0.011221875 0.457249
315 1 -0.031303125 -0.00125 -0.010040625 0.480473
316 1 -0.031303125 -0.00125 -0.008859375 0.509978
317 1 -0.031303125 -0.00125 -0.007678125 0.508377
318 1 -0.031303125 -0.00125 -0.006496875 0.542239
319 1 -0.031303125 -0.00125 -0.005315625 0.526521
320 1 -0.031303125 -0.00125 -0.004134375 0.558742
321 1 -0.031303125 -0.00125 -0.002953125 0.540087
322 1 -0.031303125 -0.00125 -0.001771875 0.573403
323 1 -0.031303125 -0.00125 -0.000590625 0.557241
324 1 -0.031303125 -0.00125 0.000590625 0.590075
325 1 -0.031303125 -0.00125 0.001771875 0.573366
326 1 -0.031303125 -0.00125 0.002953125 0.605072
327 1 -0.031303125 -0.00125 0.004134375 0.580623
328 1 -0.031303125 -0.00125 0.005315625 0.611131
329 1 -0.031303125 -0.00125 0.006496875 0.574296
330 1 -0.031303125 -0.00125 0.007678125 0.596267
331 1 -0.031303125 -0.00125 0.008859375 0.545583
332 1 -0.031303125 -0.00125 0.010040625 0.547304
333 1 -0.031303125 -0.00125 0.011221875 0.485144
334 1 -0.031303125 -0.00125 0.012403125 0.459253
335 1 -0.031303125 -0.00125 0.013584375 0.402308
336 1 -0.031303125 -0.00125 0.014765625 0.340905
337 1 -0.031303125 -0.00125 0.015946875 0.303429
338 1 -0.031303125 -0.00125 0.017128125 0.224238
339 1 -0.031303125 -0.00125 0.018309375 0.214985
340 1 -0.031303125 -0.00125 0.019490625 0.140307
341 1 -0.031303125 0.000116666666667 -0.019490625 0.185748
342 1 -0.031303125 0.000116666666667 -0.018309375 0.15308
343 1 -0.031303125 0.000116666666667 -0.017128125 0.267615
344 1 -0.031303125 0.000116666666667 -0.015946875 0.258894
345 1 -0.031303125 0.000116666666667 -0.014765625 0.358787
346 1 -0.031303125 0.000116666666667 -0.013584375 0.369938
347 1 -0.031303125 0.000116666666667 -0.012403125 0.433814
348 1 -0.031303125 0.000116666666667 -0.011221875 0.457249
349 1 -0.031303125 0.000116666666667 -0.010040625 0.480473
350 1 -0.031303125 0.000116666666667 -0.008859375 0.509978
351 1 -0.031303125 0.000116666666667 -0.007678125 0.508377
352 1 -0.031303125 0.000116666666667 -0.006496875 0.542239
353 1 -0.031303125 0.000116666666667 -0.005315625 0.526521
354 1 -0.031303125 0.000116666666667 -0.004134375 0.558742
355 1 -0.031303125 0.000116666666667 -0.002953125 0.540087
356 1 -0.031303125 0.000116666666667 -0.001771875 0.573403
357 1 -0.031303125 0.000116666666667 -0.000590625 0.557241
358 1 -0.031303125 0.000116666666667 0.000590625 0.590075
359 1 -0.031303125 0.000116666666667 0.001771875 0.573366
360 1 -0.031303125 0.000116666666667 0.002953125 0.605072
361 1 -0.031303125 0.000116666666667 0.004134375 0.580623
362 1 -0.031303125 0.000116666666667 0.005315625 0.611131
363 1 -0.031303125 0.000116666666667 0.006496875 0.574296
364 1 -0.031303125 0.000116666666667 0.007678125 0.596267
365 1 -0.031303125 0.000116666666667 0.008859375 0.545583
366 1 -0.031303125 0.000116666666667 0.010040625 0.547304
367 1 -0.031303125 0.000116666666667 0.011221875 0.485144
368 1 -0.031303125 0.000116666666667 0.012403125 0.459253
369 1 -0.031303125 0.000116666666667 0.013584375 0.402308
370 1 -0.031303125 0.000116666666667 0.014765625 0.340905
371 1 -0.031303125 0.000116666666667 0.015946875 0.303429
372 1 -0.031303125 0.000116666666667 0.017128125 0.224238
373 1 -0.031303125 0.000116666666667 0.018309375 0.214985
374 1 -0.031303125 0.000116666666667 0.019490625 0.140307
375 1 -0.030121875 -0.00261666666667 -0.020671875 0.118146
376 1 -0.030121875 -0.00261666666667 -0.019490625 0.187514
377 1 -0.030121875 -0.00261666666667 -0.018309375 0.215358
378 1 -0.030121875 -0.00261666666667 -0.017128125 0.290476
379 1 -0.030121875 -0.00261666666667 -0.015946875 0.331493
380 1 -0.030121875 -0.00261666666667 -0.014765625 0.384619
381 1 -0.030121875 -0.00261666666667 -0.013584375 0.433899
382 1 -0.030121875 -0.00261666666667 -0.012403125 0.449269
383 1 -0.030121875 -0.00261666666667 -0.011221875 0.497132
384 1 -0.030121875 -0.00261666666667 -0.010040625 0.482289
385 1 -0.030121875 -0.00261666666667 -0.008859375 0.530639
386 1 -0.030121875 -0.00261666666667 -0.007678125 0.50266
387 1 -0.030121875 -0.00261666666667 -0.006496875 0.544744
388 1 -0.030121875 -0.00261666666667 -0.005315625 0.514445
389 1 -0.030121875 -0.00261666666667 -0.004134375 0.551431
390 1 -0.030121875 -0.00261666666667 -0.002953125 0.522806
391 1 -0.030121875 -0.00261666666667 -0.001771875 0.563582
392 1 -0.030121875 -0.00261666666667 -0.000590625 0.53553
393 1 -0.030121875 -0.00261666666667 0.000590625 0.583719
394 1 -0.030121875 -0.00261666666667 0.001771875 0.550265
395 1 -0.030121875 -0.00261666666667 0.002953125 0.60412
396 1 -0.030121875 -0.00261666666667 0.004134375 0.552859
397 1 -0.030121875 -0.00261666666667 0.005315625 0.624631
398 1 -0.030121875 -0.00261666666667 0.006496875 0.548956
399 1 -0.030121875 -0.00261666666667 0.007678125 0.62519
400 1 -0.030121875 -0.00261666666667 0.008859375 0.516501
401 1 -0.030121875 -0.00261666666667 0.010040625 0.600483
402 1 -0.030121875 -0.00261666666667 0.011221875 0.464853
403 1 -0.030121875 -0.00261666666667 0.012403125 0.545259
404 1 -0.030121875 -0.00261666666667 0.013584375 0.388609
405 1 -0.030121875 -0.00261666666667 0.014765625 0.445251
406 1 -0.030121875 -0.00261666666667 0.015946875 0.293374
407 1 -0.030121875 -0.00261666666667 0.017128125 0.308967
408 1 -0.030121875 -0.00261666666667 0.018309375 0.199277
409 1 -0.030121875 -0.00261666666667 0.019490625 0.192695
410 1 -0.030121875 -0.00261666666667 0.020671875 0.136889
411 1 -0.030121875 -0.00125 -0.020671875 0.118146
412 1 -0.030121875 -0.00125 -0.019490625 0.187514
413 1 -0.030121875 -0.00125 -0.018309375 0.215358
414 1 -0.030121875 -0.00125 -0.017128125 0.290476
415 1 -0.030121875 -0.00125 -0.015946875 0.331493
416 1 -0.030121875 -0.00125 -0.014765625 0.384619
417 1 -0.030121875 -0.00125 -0.013584375 0.433899
418 1 -0.030121875 -0.00125 -0.012403125 0.449269
419 1 -0.030121875 -0.00125 -0.011221875 0.497132
420 1 -0.030121875 -0.00125 -0.010040625 0.482289
421 1 -0.030121875 -0.00125 -0.008859375 0.530639
422 1 -0.030121875 -0.00125 -0.007678125 0.50266
423 1 -0.030121875 -0.00125 -0.006496875 0.544744
424 1 -0.030121875 -0.00125 -0.005315625 0.514445
425 1 -0.030121875 -0.00125 -0.004134375 0.551431
426 1 -0.030121875 -0.00125 -0.002953125 0.522806
427 1 -0.030121875 -0.00125 -0.001771875 0.563582
428 1 -0.030121875 -0.00125 -0.000590625 0.53553
429 1 -0.030121875 -0.00125 0.000590625 0.583719
430 1 -0.030121875 -0.00125 0.001771875 0.550265
431 1 -0.030121875 -0.00125 0.002953125 0.60412
432 1 -0.030121875 -0.00125 0.004134375 0.552859
433 1 -0.030121875 -0.00125 0.005315625 0.624631
434 1 -0.030121875 -0.00125 0.006496875 0.548956
435 1 -0.030121875 -0.00125 0.007678125 0.62519
436 1 -0.030121875 -0.00125 0.008859375 0.516501
437 1 -0.030121875 -0.00125 0.010040625 0.600483
438 1 -0.030121875 -0.00125 0.011221875 0.464853
439 1 -0.030121875 -0.00125 0.012403125 0.545259
440 1 -0.030121875 -0.00125 0.013584375 0.388609
441 1 -0.030121875 -0.00125 0.014765625 0.445251
442 1 -0.030121875 -0.00125 0.015946875 0.293374
443 1 -0.030121875 -0.00125 0.017128125 0.308967
444 1 -0.030121875 -0.00125 0.018309375 0.199277
445 1 -0.030121875 -0.00125 0.019490625 0.192695
446 1 -0.030121875 -0.00125 0.020671875 0.136889
447 1 -0.030121875 0.000116666666667 -0.020671875 0.118146
448 1 -0.030121875 0.000116666666667 -0.019490625 0.187514
449 1 -0.030121875 0.000116666666667 -0.018309375 0.215358
450 1 -0.030121875 0.000116666666667 -0.017128125 0.290476
451 1 -0.030121875 0.000116666666667 -0.015946875 0.331493
452 1 -0.030121875 0.000116666666667 -0.014765625 0.384619
453 1 -0.030121875 0.000116666666667 -0.013584375 0.433899
454 1 -0.030121875 0.000116666666667 -0.012403125 0.449269
455 1 -0.030121875 0.000116666666667 -0.011221875 0.497132
456 1 -0.030121875 0.000116666666667 -0.010040625 0.482289
457 1 -0.030121875 0.000116666666667 -0.008859375 0.530639
458 1 -0.030121875 0.000116666666667 -0.007678125 0.50266
459 1 -0.030121875 0.000116666666667 -0.006496875 0.544744
460 1 -0.030121875 0.000116666666667 -0.005315625 0.514445
461 1 -0.030121875 0.000116666666667 -0.004134375 0.551431
462 1 -0.030121875 0.000116666666667 -0.002953125 0.522806
463 1 -0.030121875 0.000116666666667 -0.001771875 0.563582
464 1 -0.030121875 0.000116666666667 -0.000590625 0.53553
465 1 -0.030121875 0.000116666666667 0.000590625 0.583719
466 1 -0.030121875 0.000116666666667 0.001771875 0.550265
467 1 -0.030121875 0.000116666666667 0.002953125 0.60412
468 1 -0.030121875 0.000116666666667 0.004134375 0.552859
469 1 -0.030121875 0.000116666666667 0.005315625 0.624631
470 1 -0.030121875 0.000116666666667 0.006496875 0.548956
471 1 -0.030121875 0.000116666666667 0.007678125 0.62519
472 1 -0.030121875 0.000116666666667 0.008859375 0.516501
473 1 -0.030121875 0.000116666666667 0.010040625 0.600483
474 1 -0.030121875 0.000116666666667 0.011221875 0.464853
475 1 -0.030121875 0.000116666666667 0.012403125 0.545259
476 1 -0.030121875 0.000116666666667 0.013584375 0.388609
477 1 -0.030121875 0.000116666666667 0.014765625 0.445251
478 1 -0.030121875 0.000116666666667 0.015946875 0.293374
479 1 -0.030121875 0.000116666666667 0.017128125 0.308967
480 1 -0.030121875 0.000116666666667 0.018309375 0.199277
481 1 -0.030121875 0.000116666666667 0.019490625 0.192695
482 1 -0.030121875 0.000116666666667 0.020671875 0.136889
483 1 -0.028940625 -0.00261666666667 -0.021853125 0.229854
484 1 -0.028940625 -0.00261666666667 -0.020671875 0.208908
485 1 -0.028940625 -0.00261666666667 -0.019490625 0.335774
486 1 -0.028940625 -0.00261666666667 -0.018309375 0.352656
487 1 -0.028940625 -0.00261666666667 -0.017128125 0.442692
488 1 -0.028940625 -0.00261666666667 -0.015946875 0.49003
489 1 -0.028940625 -0.00261666666667 -0.014765625 0.517713
490 1 -0.028940625 -0.00261666666667 -0.013584375 0.558573
491 1 -0.028940625 -0.00261666666667 -0.012403125 0.549366
492 1 -0.028940625 -0.00261666666667 -0.011221875 0.583751
493 1 -0.028940625 -0.00261666666667 -0.010040625 0.567977
494 1 -0.028940625 -0.00261666666667 -0.008859375 0.594573
495 1 -0.028940625 -0.00261666666667 -0.007678125 0.576589
496 1 -0.028940625 -0.00261666666667 -0.006496875 0.600951
497 1 -0.028940625 -0.00261666666667 -0.005315625 0.585122
498 1 -0.028940625 -0.00261666666667 -0.004134375 0.604986
499 1 -0.028940625 -0.00261666666667 -0.002953125 0.593946
500 1 -0.028940625 -0.00261666666667 -0.001771875 0.614648
501 1 -0.028940625 -0.00261666666667 -0.000590625 0.610014
502 1 -0.028940625 -0.00261666666667 0.000590625 0.629943
503 1 -0.028940625 -0.00261666666667 0.001771875 0.625996
504 1 -0.028940625 -0.00261666666667 0.002953125 0.645444
505 1 -0.028940625 -0.00261666666667 0.004134375 0.635353
506 1 -0.028940625 -0.00261666666667 0.005315625 0.654282
507 1 -0.028940625 -0.00261666666667 0.006496875 0.633654
508 1 -0.028940625 -0.00261666666667 0.007678125 0.653952
509 1 -0.028940625 -0.00261666666667 0.008859375 0.61713
510 1 -0.028940625 -0.00261666666667 0.010040625 0.642183
511 1 -0.028940625 -0.00261666666667 0.011221875 0.585597
512 1 -0.028940625 -0.00261666666667 0.012403125 0.620139
513 1 -0.028940625 -0.00261666666667 0.013584375 0.538821
514 1 -0.028940625 -0.00261666666667 0.014765625 0.557031
515 1 -0.028940625 -0.00261666666667 0.015946875 0.460705
516 1 -0.028940625 -0.00261666666667 0.017128125 0.446338
517 1 -0.028940625 -0.00261666666667 0.018309375 0.361191
518 1 -0.028940625 -0.00261666666667 0.019490625 0.31545
519 1 -0.028940625 -0.00261666666667 0.020671875 0.269871
520 1 -0.028940625 -0.00261666666667 0.021853125 0.212987
521 1 -0.028940625 -0.00125 -0.021853125 0.229854
522 1 -0.028940625 -0.00125 -0.020671875 0.208908
523 1 -0.028940625 -0.00125 -0.019490625 0.335774
524 1 -0.028940625 -0.00125 -0.018309375 0.352656
525 1 -0.028940625 -0.00125 -0.017128125 0.442692
526 1 -0.028940625 -0.00125 -0.015946875 0.49003
527 1 -0.028940625 -0.00125 -0.014765625 0.517713
528 1 -0.028940625 -0.00125 -0.013584375 0.558573
529 1 -0.028940625 -0.00125 -0.012403125 0.549366
530 1 -0.028940625 -0.00125 -0.011221875 0.583751
531 1 -0.028940625 -0.00125 -0.010040625 0.567977
532 1 -0.028940625 -0.00125 -0.008859375 0.594573
533 1 -0.028940625 -0.00125 -0.007678125 0.576589
534 1 -0.028940625 -0.00125 -0.006496875 0.600951
535 1 -0.028940625 -0.00125 -0.005315625 0.585122
536 1 -0.028940625 -0.00125 -0.004134375 0.604986
537 1 -0.028940625 -0.00125 -0.002953125 0.593946