ITEM: TIMESTEP
0
ITEM: NUMBER OF ATOMS
9240
ITEM: BOX BOUNDS ss ss ss
-3.7007399999999996e-02 3.7007399999999996e-02
-2.0002499999999999e-03 2.5000000000000004e-07
-3.7007399999999996e-02 3.7007399999999996e-02
ITEM: ATOMS id type x y z c_1
0 1 -0.037209375 -0.00261666666667 -0.000590625 0.250445
1 1 -0.037209375 -0.00125 -0.000590625 0.250445
2 1 -0.037209375 0.000116666666667 -0.000590625 0.250445
3 1 -0.036028125 -0.00261666666667 -0.007678125 0.168775
4 1 -0.036028125 -0.00261666666667 -0.006496875 0.0717608
5 1 -0.036028125 -0.00261666666667 -0.005315625 0.179001
6 1 -0.036028125 -0.00261666666667 -0.004134375 0.0797537
7 1 -0.036028125 -0.00261666666667 -0.002953125 0.187851
8 1 -0.036028125 -0.00261666666667 -0.001771875 0.0881945
9 1 -0.036028125 -0.00261666666667 -0.000590625 0.197345
10 1 -0.036028125 -0.00261666666667 0.000590625 0.0951713
11 1 -0.036028125 -0.00261666666667 0.001771875 0.20342
12 1 -0.036028125 -0.00261666666667 0.002953125 0.098513
13 1 -0.036028125 -0.00261666666667 0.004134375 0.201518
14 1 -0.036028125 -0.00261666666667 0.005315625 0.0950053
15 1 -0.036028125 -0.00261666666667 0.006496875 0.190385
16 1 -0.036028125 -0.00261666666667 0.007678125 0.0863474
17 1 -0.036028125 -0.00125 -0.007678125 0.168775
18 1 -0.036028125 -0.00125 -0.006496875 0.0717608
19 1 -0.036028125 -0.00125 -0.005315625 0.179001
20 1 -0.036028125 -0.00125 -0.004134375 0.0797537
21 1 -0.036028125 -0.00125 -0.002953125 0.187851
22 1 -0.036028125 -0.00125 -0.001771875 0.0881945
23 1 -0.036028125 -0.00125 -0.000590625 0.197345
24 1 -0.036028125 -0.00125 0.000590625 0.0951713
25 1 -0.036028125 -0.00125 0.001771875 0.20342
26 1 -0.036028125 -0.00125 0.002953125 0.098513
27 1 -0.036028125 -0.00125 0.004134375 0.201518
28 1 -0.036028125 -0.00125 0.005315625 0.0950053
29 1 -0.036028125 -0.00125 0.006496875 0.190385
30 1 -0.036028125 -0.00125 0.007678125 0.0863474
31 1 -0.036028125 0.000116666666667 -0.007678125 0.168775
32 1 -0.036028125 0.000116666666667 -0.006496875 0.0717608
33 1 -0.036028125 0.000116666666667 -0.005315625 0.179001
34 1 -0.036028125 0.000116666666667 -0.004134375 0.0797537
35 1 -0.036028125 0.000116666666667 -0.002953125 0.187851
36 1 -0.036028125 0.000116666666667 -0.001771875 0.0881945
37 1 -0.036028125 0.000116666666667 -0.000590625 0.197345
38 1 -0.036028125 0.000116666666667 0.000590625 0.0951713
39 1 -0.036028125 0.000116666666667 0.001771875 0.20342
40 1 -0.036028125 0.000116666666667 0.002953125 0.098513
41 1 -0.036028125 0.000116666666667 0.004134375 0.201518
42 1 -0.036028125 0.000116666666667 0.005315625 0.0950053
43 1 -0.036028125 0.000116666666667 0.006496875 0.190385
44 1 -0.036028125 0.000116666666667 0.007678125 0.0863474
45 1 -0.034846875 -0.00261666666667 -0.011221875 0.0570403
46 1 -0.034846875 -0.00261666666667 -0.010040625 0.104648
47 1 -0.034846875 -0.00261666666667 -0.008859375 0.0709693
48 1 -0.034846875 -0.00261666666667 -0.007678125 0.117422
49 1 -0.034846875 -0.00261666666667 -0.006496875 0.0831445
50 1 -0.034846875 -0.00261666666667 -0.005315625 0.127042
51 1 -0.034846875 -0.00261666666667 -0.004134375 0.0947818
52 1 -0.034846875 -0.00261666666667 -0.002953125 0.136635
53 1 -0.034846875 -0.00261666666667 -0.001771875 0.106099
54 1 -0.034846875 -0.00261666666667 -0.000590625 0.144261
55 1 -0.034846875 -0.00261666666667 0.000590625 0.115053
56 1 -0.034846875 -0.00261666666667 0.001771875 0.148595
57 1 -0.034846875 -0.00261666666667 0.002953125 0.117681
58 1 -0.034846875 -0.00261666666667 0.004134375 0.143242
59 1 -0.034846875 -0.00261666666667 0.005315625 0.110949
60 1 -0.034846875 -0.00261666666667 0.006496875 0.130565
61 1 -0.034846875 -0.00261666666667 0.007678125 0.0963475
62 1 -0.034846875 -0.00261666666667 0.008859375 0.111533
63 1 -0.034846875 -0.00261666666667 0.010040625 0.0780084
64 1 -0.034846875 -0.00261666666667 0.011221875 0.0918674
65 1 -0.034846875 -0.00125 -0.011221875 0.0570403
66 1 -0.034846875 -0.00125 -0.010040625 0.104648
67 1 -0.034846875 -0.00125 -0.008859375 0.0709693
68 1 -0.034846875 -0.00125 -0.007678125 0.117422
69 1 -0.034846875 -0.00125 -0.006496875 0.0831445
70 1 -0.034846875 -0.00125 -0.005315625 0.127042
71 1 -0.034846875 -0.00125 -0.004134375 0.0947818
72 1 -0.034846875 -0.00125 -0.002953125 0.136635
73 1 -0.034846875 -0.00125 -0.001771875 0.106099
74 1 -0.034846875 -0.00125 -0.000590625 0.144261
75 1 -0.034846875 -0.00125 0.000590625 0.115053
76 1 -0.034846875 -0.00125 0.001771875 0.148595
77 1 -0.034846875 -0.00125 0.002953125 0.117681
78 1 -0.034846875 -0.00125 0.004134375 0.143242
79 1 -0.034846875 -0.00125 0.005315625 0.110949
80 1 -0.034846875 -0.00125 0.006496875 0.130565
81 1 -0.034846875 -0.00125 0.007678125 0.0963475
82 1 -0.034846875 -0.00125 0.008859375 0.111533
83 1 -0.034846875 -0.00125 0.010040625 0.0780084
84 1 -0.034846875 -0.00125 0.011221875 0.0918674
85 1 -0.034846875 0.000116666666667 -0.011221875 0.0570403
86 1 -0.034846875 0.000116666666667 -0.010040625 0.104648
87 1 -0.034846875 0.000116666666667 -0.008859375 0.0709693
88 1 -0.034846875 0.000116666666667 -0.007678125 0.117422
89 1 -0.034846875 0.000116666666667 -0.006496875 0.0831445
90 1 -0.034846875 0.000116666666667 -0.005315625 0.127042
91 1 -0.034846875 0.000116666666667 -0.004134375 0.0947818
92 1 -0.034846875 0.000116666666667 -0.002953125 0.136635
93 1 -0.034846875 0.000116666666667 -0.001771875 0.106099
94 1 -0.034846875 0.000116666666667 -0.000590625 0.144261
95 1 -0.034846875 0.000116666666667 0.000590625 0.115053
96 1 -0.034846875 0.000116666666667 0.001771875 0.148595
97 1 -0.034846875 0.000116666666667 0.002953125 0.117681
98 1 -0.034846875 0.000116666666667 0.004134375 0.143242
99 1 -0.034846875 0.000116666666667 0.005315625 0.110949
100 1 -0.034846875 0.000116666666667 0.006496875 0.130565
101 1 -0.034846875 0.000116666666667 0.007678125 0.0963475
102 1 -0.034846875 0.000116666666667 0.008859375 0.111533
103 1 -0.034846875 0.000116666666667 0.010040625 0.0780084
104 1 -0.034846875 0.000116666666667 0.011221875 0.0918674
105 1 -0.033665625 -0.00261666666667 -0.013584375 0.0970106
106 1 -0.033665625 -0.00261666666667 -0.012403125 0.223603
107 1 -0.033665625 -0.00261666666667 -0.011221875 0.136382
108 1 -0.033665625 -0.00261666666667 -0.010040625 0.262715
109 1 -0.033665625 -0.00261666666667 -0.008859375 0.173063
110 1 -0.033665625 -0.00261666666667 -0.007678125 0.290046
111 1 -0.033665625 -0.00261666666667 -0.006496875 0.204688
112 1 -0.033665625 -0.00261666666667 -0.005315625 0.312223
113 1 -0.033665625 -0.00261666666667 -0.004134375 0.230949
114 1 -0.033665625 -0.00261666666667 -0.002953125 0.329913
115 1 -0.033665625 -0.00261666666667 -0.001771875 0.254787
116 1 -0.033665625 -0.00261666666667 -0.000590625 0.346043
117 1 -0.033665625 -0.00261666666667 0.000590625 0.270363
118 1 -0.033665625 -0.00261666666667 0.001771875 0.353324
119 1 -0.033665625 -0.00261666666667 0.002953125 0.27233
120 1 -0.033665625 -0.00261666666667 0.004134375 0.345644
121 1 -0.033665625 -0.00261666666667 0.005315625 0.252546
122 1 -0.033665625 -0.00261666666667 0.006496875 0.317987
123 1 -0.033665625 -0.00261666666667 0.007678125 0.214037
124 1 -0.033665625 -0.00261666666667 0.008859375 0.2757
125 1 -0.033665625 -0.00261666666667 0.010040625 0.164182
126 1 -0.033665625 -0.00261666666667 0.011221875 0.223471
127 1 -0.033665625 -0.00261666666667 0.012403125 0.115297
128 1 -0.033665625 -0.00261666666667 0.013584375 0.177102
129 1 -0.033665625 -0.00125 -0.013584375 0.0970106
130 1 -0.033665625 -0.00125 -0.012403125 0.223603
131 1 -0.033665625 -0.00125 -0.011221875 0.136382
132 1 -0.033665625 -0.00125 -0.010040625 0.262715
133 1 -0.033665625 -0.00125 -0.008859375 0.173063
134 1 -0.033665625 -0.00125 -0.007678125 0.290046
135 1 -0.033665625 -0.00125 -0.006496875 0.204688
136 1 -0.033665625 -0.00125 -0.005315625 0.312223
137 1 -0.033665625 -0.00125 -0.004134375 0.230949
138 1 -0.033665625 -0.00125 -0.002953125 0.329913
139 1 -0.033665625 -0.00125 -0.001771875 0.254787
140 1 -0.033665625 -0.00125 -0.000590625 0.346043
141 1 -0.033665625 -0.00125 0.000590625 0.270363
142 1 -0.033665625 -0.00125 0.001771875 0.353324
143 1 -0.033665625 -0.00125 0.002953125 0.27233
144 1 -0.033665625 -0.00125 0.004134375 0.345644
145 1 -0.033665625 -0.00125 0.005315625 0.252546
146 1 -0.033665625 -0.00125 0.006496875 0.317987
147 1 -0.033665625 -0.00125 0.007678125 0.214037
148 1 -0.033665625 -0.00125 0.008859375 0.2757
149 1 -0.033665625 -0.00125 0.010040625 0.164182
150 1 -0.033665625 -0.00125 0.011221875 0.223471
151 1 -0.033665625 -0.00125 0.012403125 0.115297
152 1 -0.033665625 -0.00125 0.013584375 0.177102
153 1 -0.033665625 0.000116666666667 -0.013584375 0.0970106
154 1 -0.033665625 0.000116666666667 -0.012403125 0.223603
155 1 -0.033665625 0.000116666666667 -0.011221875 0.136382
156 1 -0.033665625 0.000116666666667 -0.010040625 0.262715
157 1 -0.033665625 0.000116666666667 -0.008859375 0.173063
158 1 -0.033665625 0.000116666666667 -0.007678125 0.290046
159 1 -0.033665625 0.000116666666667 -0.006496875 0.204688
160 1 -0.033665625 0.000116666666667 -0.005315625 0.312223
161 1 -0.033665625 0.000116666666667 -0.004134375 0.230949
162 1 -0.033665625 0.000116666666667 -0.002953125 0.329913
163 1 -0.033665625 0.000116666666667 -0.001771875 0.254787
164 1 -0.033665625 0.000116666666667 -0.000590625 0.346043
165 1 -0.033665625 0.000116666666667 0.000590625 0.270363
166 1 -0.033665625 0.000116666666667 0.001771875 0.353324
167 1 -0.033665625 0.000116666666667 0.002953125 0.27233
168 1 -0.033665625 0.000116666666667 0.004134375 0.345644
169 1 -0.033665625 0.000116666666667 0.005315625 0.252546
170 1 -0.033665625 0.000116666666667 0.006496875 0.317987
171 1 -0.033665625 0.000116666666667 0.007678125 0.214037
172 1 -0.033665625 0.000116666666667 0.008859375 0.2757
173 1 -0.033665625 0.000116666666667 0.010040625 0.164182
174 1 -0.033665625 0.000116666666667 0.011221875 0.223471
175 1 -0.033665625 0.000116666666667 0.012403125 0.115297
176 1 -0.033665625 0.000116666666667 0.013584375 0.177102
177 1 -0.032484375 -0.00261666666667 -0.018309375 0.0639427
178 1 -0.032484375 -0.00261666666667 -0.017128125 0.109748
179 1 -0.032484375 -0.00261666666667 -0.015946875 0.112756
180 1 -0.032484375 -0.00261666666667 -0.014765625 0.157671
181 1 -0.032484375 -0.00261666666667 -0.013584375 0.182294
182 1 -0.032484375 -0.00261666666667 -0.012403125 0.211836
183 1 -0.032484375 -0.00261666666667 -0.011221875 0.254084
184 1 -0.032484375 -0.00261666666667 -0.010040625 0.252099
185 1 -0.032484375 -0.00261666666667 -0.008859375 0.313968
186 1 -0.032484375 -0.00261666666667 -0.007678125 0.282061
187 1 -0.032484375 -0.00261666666667 -0.006496875 0.357684
188 1 -0.032484375 -0.00261666666667 -0.005315625 0.302236
189 1 -0.032484375 -0.00261666666667 -0.004134375 0.391662
190 1 -0.032484375 -0.00261666666667 -0.002953125 0.318517
191 1 -0.032484375 -0.00261666666667 -0.001771875 0.419722
192 1 -0.032484375 -0.00261666666667 -0.000590625 0.329452
193 1 -0.032484375 -0.00261666666667 0.000590625 0.438861
194 1 -0.032484375 -0.00261666666667 0.001771875 0.334916
195 1 -0.032484375 -0.00261666666667 0.002953125 0.442459
196 1 -0.032484375 -0.00261666666667 0.004134375 0.323075
197 1 -0.032484375 -0.00261666666667 0.005315625 0.419506
198 1 -0.032484375 -0.00261666666667 0.006496875 0.289912
199 1 -0.032484375 -0.00261666666667 0.007678125 0.364028
200 1 -0.032484375 -0.00261666666667 0.008859375 0.238325
201 1 -0.032484375 -0.00261666666667 0.010040625 0.285944
202 1 -0.032484375 -0.00261666666667 0.011221875 0.181214
203 1 -0.032484375 -0.00261666666667 0.012403125 0.19869
204 1 -0.032484375 -0.00261666666667 0.013584375 0.128427
205 1 -0.032484375 -0.00261666666667 0.014765625 0.123895
206 1 -0.032484375 -0.00261666666667 0.015946875 0.0887225
207 1 -0.032484375 -0.00261666666667 0.017128125 0.0753183
208 1 -0.032484375 -0.00261666666667 0.018309375 0.0642691
209 1 -0.032484375 -0.00125 -0.018309375 0.0639427
210 1 -0.032484375 -0.00125 -0.017128125 0.109748
211 1 -0.032484375 -0.00125 -0.015946875 0.112756
212 1 -0.032484375 -0.00125 -0.014765625 0.157671
213 1 -0.032484375 -0.00125 -0.013584375 0.182294
214 1 -0.032484375 -0.00125 -0.012403125 0.211836
215 1 -0.032484375 -0.00125 -0.011221875 0.254084
216 1 -0.032484375 -0.00125 -0.010040625 0.252099
217 1 -0.032484375 -0.00125 -0.008859375 0.313968
218 1 -0.032484375 -0.00125 -0.007678125 0.282061
219 1 -0.032484375 -0.00125 -0.006496875 0.357684
220 1 -0.032484375 -0.00125 -0.005315625 0.302236
221 1 -0.032484375 -0.00125 -0.004134375 0.391662
222 1 -0.032484375 -0.00125 -0.002953125 0.318517
223 1 -0.032484375 -0.00125 -0.001771875 0.419722
224 1 -0.032484375 -0.00125 -0.000590625 0.329452
225 1 -0.032484375 -0.00125 0.000590625 0.438861
226 1 -0.032484375 -0.00125 0.001771875 0.334916
227 1 -0.032484375 -0.00125 0.002953125 0.442459
228 1 -0.032484375 -0.00125 0.004134375 0.323075
229 1 -0.032484375 -0.00125 0.005315625 0.419506
230 1 -0.032484375 -0.00125 0.006496875 0.289912
231 1 -0.032484375 -0.00125 0.007678125 0.364028
232 1 -0.032484375 -0.00125 0.008859375 0.238325
233 1 -0.032484375 -0.00125 0.010040625 0.285944
234 1 -0.032484375 -0.00125 0.011221875 0.181214
235 1 -0.032484375 -0.00125 0.012403125 0.19869
236 1 -0.032484375 -0.00125 0.013584375 0.128427
237 1 -0.032484375 -0.00125 0.014765625 0.123895
238 1 -0.032484375 -0.00125 0.015946875 0.0887225
239 1 -0.032484375 -0.00125 0.017128125 0.0753183
240 1 -0.032484375 -0.00125 0.018309375 0.0642691
241 1 -0.032484375 0.000116666666667 -0.018309375 0.0639427
242 1 -0.032484375 0.000116666666667 -0.017128125 0.109748
243 1 -0.032484375 0.000116666666667 -0.015946875 0.112756
244 1 -0.032484375 0.000116666666667 -0.014765625 0.157671
245 1 -0.032484375 0.000116666666667 -0.013584375 0.182294
246 1 -0.032484375 0.000116666666667 -0.012403125 0.211836
247 1 -0.032484375 0.000116666666667 -0.011221875 0.254084
248 1 -0.032484375 0.000116666666667 -0.010040625 0.252099
249 1 -0.032484375 0.000116666666667 -0.008859375 0.313968
250 1 -0.032484375 0.000116666666667 -0.007678125 0.282061
251 1 -0.032484375 0.000116666666667 -0.006496875 0.357684
252 1 -0.032484375 0.000116666666667 -0.005315625 0.302236
253 1 -0.032484375 0.000116666666667 -0.004134375 0.391662
254 1 -0.032484375 0.000116666666667 -0.002953125 0.318517
255 1 -0.032484375 0.000116666666667 -0.001771875 0.419722
256 1 -0.032484375 0.000116666666667 -0.000590625 0.329452
257 1 -0.032484375 0.000116666666667 0.000590625 0.438861
258 1 -0.032484375 0.000116666666667 0.001771875 0.334916
259 1 -0.032484375 0.000116666666667 0.002953125 0.442459
260 1 -0.032484375 0.000116666666667 0.004134375 0.323075
261 1 -0.032484375 0.000116666666667 0.005315625 0.419506
262 1 -0.032484375 0.000116666666667 0.006496875 0.289912
263 1 -0.032484375 0.000116666666667 0.007678125 0.364028
264 1 -0.032484375 0.000116666666667 0.008859375 0.238325
265 1 -0.032484375 0.000116666666667 0.010040625 0.285944
266 1 -0.032484375 0.000116666666667 0.011221875 0.181214
267 1 -0.032484375 0.000116666666667 0.012403125 0.19869
268 1 -0.032484375 0.000116666666667 0.013584375 0.128427
269 1 -0.032484375 0.000116666666667 0.014765625 0.123895
270 1 -0.032484375 0.000116666666667 0.015946875 0.0887225
271 1 -0.032484375 0.000116666666667 0.017128125 0.0753183
272 1 -0.032484375 0.000116666666667 0.018309375 0.0642691
273 1 -0.031303125 -0.00261666666667 -0.019490625 0.205854
274 1 -0.031303125 -0.00261666666667 -0.018309375 0.151956
275 1 -0.031303125 -0.00261666666667 -0.017128125 0.290052
276 1 -0.031303125 -0.00261666666667 -0.015946875 0.261879
277 1 -0.031303125 -0.00261666666667 -0.014765625 0.382662
278 1 -0.031303125 -0.00261666666667 -0.013584375 0.381403
279 1 -0.031303125 -0.00261666666667 -0.012403125 0.457792
280 1 -0.031303125 -0.00261666666667 -0.011221875 0.477935
281 1 -0.031303125 -0.00261666666667 -0.010040625 0.504981
282 1 -0.031303125 -0.00261666666667 -0.008859375 0.538162
283 1 -0.031303125 -0.00261666666667 -0.007678125 0.532191
284 1 -0.031303125 -0.00261666666667 -0.006496875 0.57656
285 1 -0.031303125 -0.00261666666667 -0.005315625 0.551514
286 1 -0.031303125 -0.00261666666667 -0.004134375 0.599802
287 1 -0.031303125 -0.00261666666667 -0.002953125 0.561723
288 1 -0.031303125 -0.00261666666667 -0.001771875 0.614789
289 1 -0.031303125 -0.00261666666667 -0.000590625 0.570691
290 1 -0.031303125 -0.00261666666667 0.000590625 0.623424
291 1 -0.031303125 -0.00261666666667 0.001771875 0.575959
292 1 -0.031303125 -0.00261666666667 0.002953125 0.627701
293 1 -0.031303125 -0.00261666666667 0.004134375 0.573369
294 1 -0.031303125 -0.00261666666667 0.005315625 0.612362
295 1 -0.031303125 -0.00261666666667 0.006496875 0.548933
296 1 -0.031303125 -0.00261666666667 0.007678125 0.563952
297 1 -0.031303125 -0.00261666666667 0.008859375 0.499431
298 1 -0.031303125 -0.00261666666667 0.010040625 0.479567
299 1 -0.031303125 -0.00261666666667 0.011221875 0.426875
300 1 -0.031303125 -0.00261666666667 0.012403125 0.365384
301 1 -0.031303125 -0.00261666666667 0.013584375 0.335822
302 1 -0.031303125 -0.00261666666667 0.014765625 0.245092
303 1 -0.031303125 -0.00261666666667 0.015946875 0.245282
304 1 -0.031303125 -0.00261666666667 0.017128125 0.152508
305 1 -0.031303125 -0.00261666666667 0.018309375 0.178837
306 1 -0.031303125 -0.00261666666667 0.019490625 0.0974448
307 1 -0.031303125 -0.00125 -0.019490625 0.205854
308 1 -0.031303125 -0.00125 -0.018309375 0.151956
309 1 -0.031303125 -0.00125 -0.017128125 0.290052
310 1 -0.031303125 -0.00125 -0.015946875 0.261879
311 1 -0.031303125 -0.00125 -0.014765625 0.382662
312 1 -0.031303125 -0.00125 -0.013584375 0.381403
313 1 -0.031303125 -0.00125 -0.012403125 0.457792
314 1 -0.031303125 -0.00125 -0.011221875 0.477935
315 1 -0.031303125 -0.00125 -0.010040625 0.504981
316 1 -0.031303125 -0.00125 -0.008859375 0.538162
317 1 -0.031303125 -0.00125 -0.007678125 0.532191
318 1 -0.031303125 -0.00125 -0.006496875 0.57656
319 1 -0.031303125 -0.00125 -0.005315625 0.551514
320 1 -0.031303125 -0.00125 -0.004134375 0.599802
321 1 -0.031303125 -0.00125 -0.002953125 0.561723
322 1 -0.031303125 -0.00125 -0.001771875 0.614789
323 1 -0.031303125 -0.00125 -0.000590625 0.570691
324 1 -0.031303125 -0.00125 0.000590625 0.623424
325 1 -0.031303125 -0.00125 0.001771875 0.575959
326 1 -0.031303125 -0.00125 0.002953125 0.627701
327 1 -0.031303125 -0.00125 0.004134375 0.573369
328 1 -0.031303125 -0.00125 0.005315625 0.612362
329 1 -0.031303125 -0.00125 0.006496875 0.548933
330 1 -0.031303125 -0.00125 0.007678125 0.563952
331 1 -0.031303125 -0.00125 0.008859375 0.499431
332 1 -0.031303125 -0.00125 0.010040625 0.479567
333 1 -0.031303125 -0.00125 0.011221875 0.426875
334 1 -0.031303125 -0.00125 0.012403125 0.365384
335 1 -0.031303125 -0.00125 0.013584375 0.335822
336 1 -0.031303125 -0.00125 0.014765625 0.245092
337 1 -0.031303125 -0.00125 0.015946875 0.245282
338 1 -0.031303125 -0.00125 0.017128125 0.152508
339 1 -0.031303125 -0.00125 0.018309375 0.178837
340 1 -0.031303125 -0.00125 0.019490625 0.0974448
341 1 -0.031303125 0.000116666666667 -0.019490625 0.205854
342 1 -0.031303125 0.000116666666667 -0.018309375 0.151956
343 1 -0.031303125 0.000116666666667 -0.017128125 0.290052
344 1 -0.031303125 0.000116666666667 -0.015946875 0.261879
345 1 -0.031303125 0.000116666666667 -0.014765625 0.382662
346 1 -0.031303125 0.000116666666667 -0.013584375 0.381403
347 1 -0.031303125 0.000116666666667 -0.012403125 0.457792
348 1 -0.031303125 0.000116666666667 -0.011221875 0.477935
349 1 -0.031303125 0.000116666666667 -0.010040625 0.504981
350 1 -0.031303125 0.000116666666667 -0.008859375 0.538162
351 1 -0.031303125 0.000116666666667 -0.007678125 0.532191
352 1 -0.031303125 0.000116666666667 -0.006496875 0.57656
353 1 -0.031303125 0.000116666666667 -0.005315625 0.551514
354 1 -0.031303125 0.000116666666667 -0.004134375 0.599802
355 1 -0.031303125 0.000116666666667 -0.002953125 0.561723
356 1 -0.031303125 0.000116666666667 -0.001771875 0.614789
357 1 -0.031303125 0.000116666666667 -0.000590625 0.570691
358 1 -0.031303125 0.000116666666667 0.000590625 0.623424
359 1 -0.031303125 0.000116666666667 0.001771875 0.575959
360 1 -0.031303125 0.000116666666667 0.002953125 0.627701
361 1 -0.031303125 0.000116666666667 0.004134375 0.573369
362 1 -0.031303125 0.000116666666667 0.005315625 0.612362
363 1 -0.031303125 0.000116666666667 0.006496875 0.548933
364 1 -0.031303125 0.000116666666667 0.007678125 0.563952
365 1 -0.031303125 0.000116666666667 0.008859375 0.499431
366 1 -0.031303125 0.000116666666667 0.010040625 0.479567
367 1 -0.031303125 0.000116666666667 0.011221875 0.426875
368 1 -0.031303125 0.000116666666667 0.012403125 0.365384
369 1 -0.031303125 0.000116666666667 0.013584375 0.335822
370 1 -0.031303125 0.000116666666667 0.014765625 0.245092
371 1 -0.031303125 0.000116666666667 0.015946875 0.245282
372 1 -0.031303125 0.000116666666667 0.017128125 0.152508
373 1 -0.031303125 0.000116666666667 0.018309375 0.178837
374 1 -0.031303125 0.000116666666667 0.019490625 0.0974448
375 1 -0.030121875 -0.00261666666667 -0.020671875 0.121361
376 1 -0.030121875 -0.00261666666667 -0.019490625 0.18698
377 1 -0.030121875 -0.00261666666667 -0.018309375 0.22585
378 1 -0.030121875 -0.00261666666667 -0.017128125 0.289612
379 1 -0.030121875 -0.00261666666667 -0.015946875 0.358578
380 1 -0.030121875 -0.00261666666667 -0.014765625 0.387061
381 1 -0.030121875 -0.00261666666667 -0.013584375 0.473746
382 1 -0.030121875 -0.00261666666667 -0.012403125 0.451128
383 1 -0.030121875 -0.00261666666667 -0.011221875 0.543459
384 1 -0.030121875 -0.00261666666667 -0.010040625 0.483224
385 1 -0.030121875 -0.00261666666667 -0.008859375 0.580301
386 1 -0.030121875 -0.00261666666667 -0.007678125 0.502308
387 1 -0.030121875 -0.00261666666667 -0.006496875 0.598869
388 1 -0.030121875 -0.00261666666667 -0.005315625 0.51198
389 1 -0.030121875 -0.00261666666667 -0.004134375 0.608997
390 1 -0.030121875 -0.00261666666667 -0.002953125 0.519602
391 1 -0.030121875 -0.00261666666667 -0.001771875 0.616607
392 1 -0.030121875 -0.00261666666667 -0.000590625 0.525939
393 1 -0.030121875 -0.00261666666667 0.000590625 0.626784
394 1 -0.030121875 -0.00261666666667 0.001771875 0.53078
395 1 -0.030121875 -0.00261666666667 0.002953125 0.638141
396 1 -0.030121875 -0.00261666666667 0.004134375 0.522901
397 1 -0.030121875 -0.00261666666667 0.005315625 0.642084
398 1 -0.030121875 -0.00261666666667 0.006496875 0.500175
399 1 -0.030121875 -0.00261666666667 0.007678125 0.621785
400 1 -0.030121875 -0.00261666666667 0.008859375 0.453326
401 1 -0.030121875 -0.00261666666667 0.010040625 0.578339
402 1 -0.030121875 -0.00261666666667 0.011221875 0.390181
403 1 -0.030121875 -0.00261666666667 0.012403125 0.4831
404 1 -0.030121875 -0.00261666666667 0.013584375 0.294684
405 1 -0.030121875 -0.00261666666667 0.014765625 0.336598
406 1 -0.030121875 -0.00261666666667 0.015946875 0.196754
407 1 -0.030121875 -0.00261666666667 0.017128125 0.208462
408 1 -0.030121875 -0.00261666666667 0.018309375 0.132092
409 1 -0.030121875 -0.00261666666667 0.019490625 0.128957
410 1 -0.030121875 -0.00261666666667 0.020671875 0.0964512
411 1 -0.030121875 -0.00125 -0.020671875 0.121361
412 1 -0.030121875 -0.00125 -0.019490625 0.18698
413 1 -0.030121875 -0.00125 -0.018309375 0.22585
414 1 -0.030121875 -0.00125 -0.017128125 0.289612
415 1 -0.030121875 -0.00125 -0.015946875 0.358578
416 1 -0.030121875 -0.00125 -0.014765625 0.387061
417 1 -0.030121875 -0.00125 -0.013584375 0.473746
418 1 -0.030121875 -0.00125 -0.012403125 0.451128
419 1 -0.030121875 -0.00125 -0.011221875 0.543459
420 1 -0.030121875 -0.00125 -0.010040625 0.483224
421 1 -0.030121875 -0.00125 -0.008859375 0.580301
422 1 -0.030121875 -0.00125 -0.007678125 0.502308
423 1 -0.030121875 -0.00125 -0.006496875 0.598869
424 1 -0.030121875 -0.00125 -0.005315625 0.51198
425 1 -0.030121875 -0.00125 -0.004134375 0.608997
426 1 -0.030121875 -0.00125 -0.002953125 0.519602
427 1 -0.030121875 -0.00125 -0.001771875 0.616607
428 1 -0.030121875 -0.00125 -0.000590625 0.525939
429 1 -0.030121875 -0.00125 0.000590625 0.626784
430 1 -0.030121875 -0.00125 0.001771875 0.53078
431 1 -0.030121875 -0.00125 0.002953125 0.638141
432 1 -0.030121875 -0.00125 0.004134375 0.522901
433 1 -0.030121875 -0.00125 0.005315625 0.642084
434 1 -0.030121875 -0.00125 0.006496875 0.500175
435 1 -0.030121875 -0.00125 0.007678125 0.621785
436 1 -0.030121875 -0.00125 0.008859375 0.453326
437 1 -0.030121875 -0.00125 0.010040625 0.578339
438 1 -0.030121875 -0.00125 0.011221875 0.390181
439 1 -0.030121875 -0.00125 0.012403125 0.4831
440 1 -0.030121875 -0.00125 0.013584375 0.294684
441 1 -0.030121875 -0.00125 0.014765625 0.336598
442 1 -0.030121875 -0.00125 0.015946875 0.196754
443 1 -0.030121875 -0.00125 0.017128125 0.208462
444 1 -0.030121875 -0.00125 0.018309375 0.132092
445 1 -0.030121875 -0.00125 0.019490625 0.128957
446 1 -0.030121875 -0.00125 0.020671875 0.0964512
447 1 -0.030121875 0.000116666666667 -0.020671875 0.121361
448 1 -0.030121875 0.000116666666667 -0.019490625 0.18698
449 1 -0.030121875 0.000116666666667 -0.018309375 0.22585
450 1 -0.030121875 0.000116666666667 -0.017128125 0.289612
451 1 -0.030121875 0.000116666666667 -0.015946875 0.358578
452 1 -0.030121875 0.000116666666667 -0.014765625 0.387061
453 1 -0.030121875 0.000116666666667 -0.013584375 0.473746
454 1 -0.030121875 0.000116666666667 -0.012403125 0.451128
455 1 -0.030121875 0.000116666666667 -0.011221875 0.543459
456 1 -0.030121875 0.000116666666667 -0.010040625 0.483224
457 1 -0.030121875 0.000116666666667 -0.008859375 0.580301
458 1 -0.030121875 0.000116666666667 -0.007678125 0.502308
459 1 -0.030121875 0.000116666666667 -0.006496875 0.598869
460 1 -0.030121875 0.000116666666667 -0.005315625 0.51198
461 1 -0.030121875 0.000116666666667 -0.004134375 0.608997
462 1 -0.030121875 0.000116666666667 -0.002953125 0.519602
463 1 -0.030121875 0.000116666666667 -0.001771875 0.616607
464 1 -0.030121875 0.000116666666667 -0.000590625 0.525939
465 1 -0.030121875 0.000116666666667 0.000590625 0.626784
466 1 -0.030121875 0.000116666666667 0.001771875 0.53078
467 1 -0.030121875 0.000116666666667 0.002953125 0.638141
468 1 -0.030121875 0.000116666666667 0.004134375 0.522901
469 1 -0.030121875 0.000116666666667 0.005315625 0.642084
470 1 -0.030121875 0.000116666666667 0.006496875 0.500175
471 1 -0.030121875 0.000116666666667 0.007678125 0.621785
472 1 -0.030121875 0.000116666666667 0.008859375 0.453326
473 1 -0.030121875 0.000116666666667 0.010040625 0.578339
474 1 -0.030121875 0.000116666666667 0.011221875 0.390181
475 1 -0.030121875 0.000116666666667 0.012403125 0.4831
476 1 -0.030121875 0.000116666666667 0.013584375 0.294684
477 1 -0.030121875 0.000116666666667 0.014765625 0.336598
478 1 -0.030121875 0.000116666666667 0.015946875 0.196754
479 1 -0.030121875 0.000116666666667 0.017128125 0.208462
480 1 -0.030121875 0.000116666666667 0.018309375 0.132092
481 1 -0.030121875 0.000116666666667 0.019490625 0.128957
482 1 -0.030121875 0.000116666666667 0.020671875 0.0964512
483 1 -0.028940625 -0.00261666666667 -0.021853125 0.248211
484 1 -0.028940625 -0.00261666666667 -0.020671875 0.207871
485 1 -0.028940625 -0.00261666666667 -0.019490625 0.359445
486 1 -0.028940625 -0.00261666666667 -0.018309375 0.362248
487 1 -0.028940625 -0.00261666666667 -0.017128125 0.467815
488 1 -0.028940625 -0.00261666666667 -0.015946875 0.515636
489 1 -0.028940625 -0.00261666666667 -0.014765625 0.547513
490 1 -0.028940625 -0.00261666666667 -0.013584375 0.592217
491 1 -0.028940625 -0.00261666666667 -0.012403125 0.575117
492 1 -0.028940625 -0.00261666666667 -0.011221875 0.61277
493 1 -0.028940625 -0.00261666666667 -0.010040625 0.589167
494 1 -0.028940625 -0.00261666666667 -0.008859375 0.617795
495 1 -0.028940625 -0.00261666666667 -0.007678125 0.592095
496 1 -0.028940625 -0.00261666666667 -0.006496875 0.618939
497 1 -0.028940625 -0.00261666666667 -0.005315625 0.595231
498 1 -0.028940625 -0.00261666666667 -0.004134375 0.618514
499 1 -0.028940625 -0.00261666666667 -0.002953125 0.596329
500 1 -0.028940625 -0.00261666666667 -0.001771875 0.623082
501 1 -0.028940625 -0.00261666666667 -0.000590625 0.603534
502 1 -0.028940625 -0.00261666666667 0.000590625 0.631534
503 1 -0.028940625 -0.00261666666667 0.001771875 0.610941
504 1 -0.028940625 -0.00261666666667 0.002953125 0.64349
505 1 -0.028940625 -0.00261666666667 0.004134375 0.615805
506 1 -0.028940625 -0.00261666666667 0.005315625 0.652001
507 1 -0.028940625 -0.00261666666667 0.006496875 0.613007
508 1 -0.028940625 -0.00261666666667 0.007678125 0.65386
509 1 -0.028940625 -0.00261666666667 0.008859375 0.598764
510 1 -0.028940625 -0.00261666666667 0.010040625 0.644545
511 1 -0.028940625 -0.00261666666667 0.011221875 0.568045
512 1 -0.028940625 -0.00261666666667 0.012403125 0.590135
513 1 -0.028940625 -0.00261666666667 0.013584375 0.493813
514 1 -0.028940625 -0.00261666666667 0.014765625 0.468561
515 1 -0.028940625 -0.00261666666667 0.015946875 0.388023
516 1 -0.028940625 -0.00261666666667 0.017128125 0.320258
517 1 -0.028940625 -0.00261666666667 0.018309375 0.286717
518 1 -0.028940625 -0.00261666666667 0.019490625 0.208937
519 1 -0.028940625 -0.00261666666667 0.020671875 0.218768
520 1 -0.028940625 -0.00261666666667 0.021853125 0.144125
521 1 -0.028940625 -0.00125 -0.021853125 0.248211
522 1 -0.028940625 -0.00125 -0.020671875 0.207871
523 1 -0.028940625 -0.00125 -0.019490625 0.359445
524 1 -0.028940625 -0.00125 -0.018309375 0.362248
525 1 -0.028940625 -0.00125 -0.017128125 0.467815
526 1 -0.028940625 -0.00125 -0.015946875 0.515636
527 1 -0.028940625 -0.00125 -0.014765625 0.547513
528 1 -0.028940625 -0.00125 -0.013584375 0.592217
529 1 -0.028940625 -0.00125 -0.012403125 0.575117
530 1 -0.028940625 -0.00125 -0.011221875 0.61277
531 1 -0.028940625 -0.00125 -0.010040625 0.589167
532 1 -0.028940625 -0.00125 -0.008859375 0.617795
533 1 -0.028940625 -0.00125 -0.007678125 0.592095
534 1 -0.028940625 -0.00125 -0.006496875 0.618939
535 1 -0.028940625 -0.00125 -0.005315625 0.595231
536 1 -0.028940625 -0.00125 -0.004134375 0.618514