ITEM: TIMESTEP
0
ITEM: NUMBER OF ATOMS
9240
ITEM: BOX BOUNDS ss ss ss
-3.7007399999999996e-02 3.7007399999999996e-02
-2.0002499999999999e-03 2.5000000000000004e-07
-3.7007399999999996e-02 3.7007399999999996e-02
ITEM: ATOMS id type x y z c_1
0 1 -0.037209375 -0.00261666666667 -0.000590625 0.290336
1 1 -0.037209375 -0.00125 -0.000590625 0.290336
2 1 -0.037209375 0.000116666666667 -0.000590625 0.290336
3 1 -0.036028125 -0.00261666666667 -0.007678125 0.259187
4 1 -0.036028125 -0.00261666666667 -0.006496875 0.153844
5 1 -0.036028125 -0.00261666666667 -0.005315625 0.274745
6 1 -0.036028125 -0.00261666666667 -0.004134375 0.169868
7 1 -0.036028125 -0.00261666666667 -0.002953125 0.29045
8 1 -0.036028125 -0.00261666666667 -0.001771875 0.1876
9 1 -0.036028125 -0.00261666666667 -0.000590625 0.308049
10 1 -0.036028125 -0.00261666666667 0.000590625 0.202861
11 1 -0.036028125 -0.00261666666667 0.001771875 0.319796
12 1 -0.036028125 -0.00261666666667 0.002953125 0.209924
13 1 -0.036028125 -0.00261666666667 0.004134375 0.319831
14 1 -0.036028125 -0.00261666666667 0.005315625 0.20016
15 1 -0.036028125 -0.00261666666667 0.006496875 0.303844
16 1 -0.036028125 -0.00261666666667 0.007678125 0.176018
17 1 -0.036028125 -0.00125 -0.007678125 0.259187
18 1 -0.036028125 -0.00125 -0.006496875 0.153844
19 1 -0.036028125 -0.00125 -0.005315625 0.274745
20 1 -0.036028125 -0.00125 -0.004134375 0.169868
21 1 -0.036028125 -0.00125 -0.002953125 0.29045
22 1 -0.036028125 -0.00125 -0.001771875 0.1876
23 1 -0.036028125 -0.00125 -0.000590625 0.308049
24 1 -0.036028125 -0.00125 0.000590625 0.202861
25 1 -0.036028125 -0.00125 0.001771875 0.319796
26 1 -0.036028125 -0.00125 0.002953125 0.209924
27 1 -0.036028125 -0.00125 0.004134375 0.319831
28 1 -0.036028125 -0.00125 0.005315625 0.20016
29 1 -0.036028125 -0.00125 0.006496875 0.303844
30 1 -0.036028125 -0.00125 0.007678125 0.176018
31 1 -0.036028125 0.000116666666667 -0.007678125 0.259187
32 1 -0.036028125 0.000116666666667 -0.006496875 0.153844
33 1 -0.036028125 0.000116666666667 -0.005315625 0.274745
34 1 -0.036028125 0.000116666666667 -0.004134375 0.169868
35 1 -0.036028125 0.000116666666667 -0.002953125 0.29045
36 1 -0.036028125 0.000116666666667 -0.001771875 0.1876
37 1 -0.036028125 0.000116666666667 -0.000590625 0.308049
38 1 -0.036028125 0.000116666666667 0.000590625 0.202861
39 1 -0.036028125 0.000116666666667 0.001771875 0.319796
40 1 -0.036028125 0.000116666666667 0.002953125 0.209924
41 1 -0.036028125 0.000116666666667 0.004134375 0.319831
42 1 -0.036028125 0.000116666666667 0.005315625 0.20016
43 1 -0.036028125 0.000116666666667 0.006496875 0.303844
44 1 -0.036028125 0.000116666666667 0.007678125 0.176018
45 1 -0.034846875 -0.00261666666667 -0.011221875 0.134451
46 1 -0.034846875 -0.00261666666667 -0.010040625 0.177443
47 1 -0.034846875 -0.00261666666667 -0.008859375 0.157082
48 1 -0.034846875 -0.00261666666667 -0.007678125 0.194704
49 1 -0.034846875 -0.00261666666667 -0.006496875 0.176865
50 1 -0.034846875 -0.00261666666667 -0.005315625 0.210258
51 1 -0.034846875 -0.00261666666667 -0.004134375 0.197799
52 1 -0.034846875 -0.00261666666667 -0.002953125 0.226321
53 1 -0.034846875 -0.00261666666667 -0.001771875 0.221471
54 1 -0.034846875 -0.00261666666667 -0.000590625 0.242405
55 1 -0.034846875 -0.00261666666667 0.000590625 0.24386
56 1 -0.034846875 -0.00261666666667 0.001771875 0.25342
57 1 -0.034846875 -0.00261666666667 0.002953125 0.256148
58 1 -0.034846875 -0.00261666666667 0.004134375 0.248978
59 1 -0.034846875 -0.00261666666667 0.005315625 0.253509
60 1 -0.034846875 -0.00261666666667 0.006496875 0.230011
61 1 -0.034846875 -0.00261666666667 0.007678125 0.226206
62 1 -0.034846875 -0.00261666666667 0.008859375 0.193695
63 1 -0.034846875 -0.00261666666667 0.010040625 0.183037
64 1 -0.034846875 -0.00261666666667 0.011221875 0.153294
65 1 -0.034846875 -0.00125 -0.011221875 0.134451
66 1 -0.034846875 -0.00125 -0.010040625 0.177443
67 1 -0.034846875 -0.00125 -0.008859375 0.157082
68 1 -0.034846875 -0.00125 -0.007678125 0.194704
69 1 -0.034846875 -0.00125 -0.006496875 0.176865
70 1 -0.034846875 -0.00125 -0.005315625 0.210258
71 1 -0.034846875 -0.00125 -0.004134375 0.197799
72 1 -0.034846875 -0.00125 -0.002953125 0.226321
73 1 -0.034846875 -0.00125 -0.001771875 0.221471
74 1 -0.034846875 -0.00125 -0.000590625 0.242405
75 1 -0.034846875 -0.00125 0.000590625 0.24386
76 1 -0.034846875 -0.00125 0.001771875 0.25342
77 1 -0.034846875 -0.00125 0.002953125 0.256148
78 1 -0.034846875 -0.00125 0.004134375 0.248978
79 1 -0.034846875 -0.00125 0.005315625 0.253509
80 1 -0.034846875 -0.00125 0.006496875 0.230011
81 1 -0.034846875 -0.00125 0.007678125 0.226206
82 1 -0.034846875 -0.00125 0.008859375 0.193695
83 1 -0.034846875 -0.00125 0.010040625 0.183037
84 1 -0.034846875 -0.00125 0.011221875 0.153294
85 1 -0.034846875 0.000116666666667 -0.011221875 0.134451
86 1 -0.034846875 0.000116666666667 -0.010040625 0.177443
87 1 -0.034846875 0.000116666666667 -0.008859375 0.157082
88 1 -0.034846875 0.000116666666667 -0.007678125 0.194704
89 1 -0.034846875 0.000116666666667 -0.006496875 0.176865
90 1 -0.034846875 0.000116666666667 -0.005315625 0.210258
91 1 -0.034846875 0.000116666666667 -0.004134375 0.197799
92 1 -0.034846875 0.000116666666667 -0.002953125 0.226321
93 1 -0.034846875 0.000116666666667 -0.001771875 0.221471
94 1 -0.034846875 0.000116666666667 -0.000590625 0.242405
95 1 -0.034846875 0.000116666666667 0.000590625 0.24386
96 1 -0.034846875 0.000116666666667 0.001771875 0.25342
97 1 -0.034846875 0.000116666666667 0.002953125 0.256148
98 1 -0.034846875 0.000116666666667 0.004134375 0.248978
99 1 -0.034846875 0.000116666666667 0.005315625 0.253509
100 1 -0.034846875 0.000116666666667 0.006496875 0.230011
101 1 -0.034846875 0.000116666666667 0.007678125 0.226206
102 1 -0.034846875 0.000116666666667 0.008859375 0.193695
103 1 -0.034846875 0.000116666666667 0.010040625 0.183037
104 1 -0.034846875 0.000116666666667 0.011221875 0.153294
105 1 -0.033665625 -0.00261666666667 -0.013584375 0.181501
106 1 -0.033665625 -0.00261666666667 -0.012403125 0.314471
107 1 -0.033665625 -0.00261666666667 -0.011221875 0.235329
108 1 -0.033665625 -0.00261666666667 -0.010040625 0.352977
109 1 -0.033665625 -0.00261666666667 -0.008859375 0.275687
110 1 -0.033665625 -0.00261666666667 -0.007678125 0.37593
111 1 -0.033665625 -0.00261666666667 -0.006496875 0.306905
112 1 -0.033665625 -0.00261666666667 -0.005315625 0.397123
113 1 -0.033665625 -0.00261666666667 -0.004134375 0.335205
114 1 -0.033665625 -0.00261666666667 -0.002953125 0.418283
115 1 -0.033665625 -0.00261666666667 -0.001771875 0.365912
116 1 -0.033665625 -0.00261666666667 -0.000590625 0.442454
117 1 -0.033665625 -0.00261666666667 0.000590625 0.392558
118 1 -0.033665625 -0.00261666666667 0.001771875 0.459565
119 1 -0.033665625 -0.00261666666667 0.002953125 0.406975
120 1 -0.033665625 -0.00261666666667 0.004134375 0.461402
121 1 -0.033665625 -0.00261666666667 0.005315625 0.395168
122 1 -0.033665625 -0.00261666666667 0.006496875 0.442914
123 1 -0.033665625 -0.00261666666667 0.007678125 0.355564
124 1 -0.033665625 -0.00261666666667 0.008859375 0.40055
125 1 -0.033665625 -0.00261666666667 0.010040625 0.28931
126 1 -0.033665625 -0.00261666666667 0.011221875 0.336555
127 1 -0.033665625 -0.00261666666667 0.012403125 0.209041
128 1 -0.033665625 -0.00261666666667 0.013584375 0.257795
129 1 -0.033665625 -0.00125 -0.013584375 0.181501
130 1 -0.033665625 -0.00125 -0.012403125 0.314471
131 1 -0.033665625 -0.00125 -0.011221875 0.235329
132 1 -0.033665625 -0.00125 -0.010040625 0.352977
133 1 -0.033665625 -0.00125 -0.008859375 0.275687
134 1 -0.033665625 -0.00125 -0.007678125 0.37593
135 1 -0.033665625 -0.00125 -0.006496875 0.306905
136 1 -0.033665625 -0.00125 -0.005315625 0.397123
137 1 -0.033665625 -0.00125 -0.004134375 0.335205
138 1 -0.033665625 -0.00125 -0.002953125 0.418283
139 1 -0.033665625 -0.00125 -0.001771875 0.365912
140 1 -0.033665625 -0.00125 -0.000590625 0.442454
141 1 -0.033665625 -0.00125 0.000590625 0.392558
142 1 -0.033665625 -0.00125 0.001771875 0.459565
143 1 -0.033665625 -0.00125 0.002953125 0.406975
144 1 -0.033665625 -0.00125 0.004134375 0.461402
145 1 -0.033665625 -0.00125 0.005315625 0.395168
146 1 -0.033665625 -0.00125 0.006496875 0.442914
147 1 -0.033665625 -0.00125 0.007678125 0.355564
148 1 -0.033665625 -0.00125 0.008859375 0.40055
149 1 -0.033665625 -0.00125 0.010040625 0.28931
150 1 -0.033665625 -0.00125 0.011221875 0.336555
151 1 -0.033665625 -0.00125 0.012403125 0.209041
152 1 -0.033665625 -0.00125 0.013584375 0.257795
153 1 -0.033665625 0.000116666666667 -0.013584375 0.181501
154 1 -0.033665625 0.000116666666667 -0.012403125 0.314471
155 1 -0.033665625 0.000116666666667 -0.011221875 0.235329
156 1 -0.033665625 0.000116666666667 -0.010040625 0.352977
157 1 -0.033665625 0.000116666666667 -0.008859375 0.275687
158 1 -0.033665625 0.000116666666667 -0.007678125 0.37593
159 1 -0.033665625 0.000116666666667 -0.006496875 0.306905
160 1 -0.033665625 0.000116666666667 -0.005315625 0.397123
161 1 -0.033665625 0.000116666666667 -0.004134375 0.335205
162 1 -0.033665625 0.000116666666667 -0.002953125 0.418283
163 1 -0.033665625 0.000116666666667 -0.001771875 0.365912
164 1 -0.033665625 0.000116666666667 -0.000590625 0.442454
165 1 -0.033665625 0.000116666666667 0.000590625 0.392558
166 1 -0.033665625 0.000116666666667 0.001771875 0.459565
167 1 -0.033665625 0.000116666666667 0.002953125 0.406975
168 1 -0.033665625 0.000116666666667 0.004134375 0.461402
169 1 -0.033665625 0.000116666666667 0.005315625 0.395168
170 1 -0.033665625 0.000116666666667 0.006496875 0.442914
171 1 -0.033665625 0.000116666666667 0.007678125 0.355564
172 1 -0.033665625 0.000116666666667 0.008859375 0.40055
173 1 -0.033665625 0.000116666666667 0.010040625 0.28931
174 1 -0.033665625 0.000116666666667 0.011221875 0.336555
175 1 -0.033665625 0.000116666666667 0.012403125 0.209041
176 1 -0.033665625 0.000116666666667 0.013584375 0.257795
177 1 -0.032484375 -0.00261666666667 -0.018309375 0.115558
178 1 -0.032484375 -0.00261666666667 -0.017128125 0.177698
179 1 -0.032484375 -0.00261666666667 -0.015946875 0.194184
180 1 -0.032484375 -0.00261666666667 -0.014765625 0.247331
181 1 -0.032484375 -0.00261666666667 -0.013584375 0.277739
182 1 -0.032484375 -0.00261666666667 -0.012403125 0.30869
183 1 -0.032484375 -0.00261666666667 -0.011221875 0.343813
184 1 -0.032484375 -0.00261666666667 -0.010040625 0.345123
185 1 -0.032484375 -0.00261666666667 -0.008859375 0.384788
186 1 -0.032484375 -0.00261666666667 -0.007678125 0.364948
187 1 -0.032484375 -0.00261666666667 -0.006496875 0.407013
188 1 -0.032484375 -0.00261666666667 -0.005315625 0.380364
189 1 -0.032484375 -0.00261666666667 -0.004134375 0.428579
190 1 -0.032484375 -0.00261666666667 -0.002953125 0.395921
191 1 -0.032484375 -0.00261666666667 -0.001771875 0.454641
192 1 -0.032484375 -0.00261666666667 -0.000590625 0.413691
193 1 -0.032484375 -0.00261666666667 0.000590625 0.481977
194 1 -0.032484375 -0.00261666666667 0.001771875 0.427836
195 1 -0.032484375 -0.00261666666667 0.002953125 0.501048
196 1 -0.032484375 -0.00261666666667 0.004134375 0.42503
197 1 -0.032484375 -0.00261666666667 0.005315625 0.509358
198 1 -0.032484375 -0.00261666666667 0.006496875 0.407562
199 1 -0.032484375 -0.00261666666667 0.007678125 0.491199
200 1 -0.032484375 -0.00261666666667 0.008859375 0.364682
201 1 -0.032484375 -0.00261666666667 0.010040625 0.43841
202 1 -0.032484375 -0.00261666666667 0.011221875 0.302924
203 1 -0.032484375 -0.00261666666667 0.012403125 0.337565
204 1 -0.032484375 -0.00261666666667 0.013584375 0.214139
205 1 -0.032484375 -0.00261666666667 0.014765625 0.222798
206 1 -0.032484375 -0.00261666666667 0.015946875 0.137365
207 1 -0.032484375 -0.00261666666667 0.017128125 0.129995
208 1 -0.032484375 -0.00261666666667 0.018309375 0.0858029
209 1 -0.032484375 -0.00125 -0.018309375 0.115558
210 1 -0.032484375 -0.00125 -0.017128125 0.177698
211 1 -0.032484375 -0.00125 -0.015946875 0.194184
212 1 -0.032484375 -0.00125 -0.014765625 0.247331
213 1 -0.032484375 -0.00125 -0.013584375 0.277739
214 1 -0.032484375 -0.00125 -0.012403125 0.30869
215 1 -0.032484375 -0.00125 -0.011221875 0.343813
216 1 -0.032484375 -0.00125 -0.010040625 0.345123
217 1 -0.032484375 -0.00125 -0.008859375 0.384788
218 1 -0.032484375 -0.00125 -0.007678125 0.364948
219 1 -0.032484375 -0.00125 -0.006496875 0.407013
220 1 -0.032484375 -0.00125 -0.005315625 0.380364
221 1 -0.032484375 -0.00125 -0.004134375 0.428579
222 1 -0.032484375 -0.00125 -0.002953125 0.395921
223 1 -0.032484375 -0.00125 -0.001771875 0.454641
224 1 -0.032484375 -0.00125 -0.000590625 0.413691
225 1 -0.032484375 -0.00125 0.000590625 0.481977
226 1 -0.032484375 -0.00125 0.001771875 0.427836
227 1 -0.032484375 -0.00125 0.002953125 0.501048
228 1 -0.032484375 -0.00125 0.004134375 0.42503
229 1 -0.032484375 -0.00125 0.005315625 0.509358
230 1 -0.032484375 -0.00125 0.006496875 0.407562
231 1 -0.032484375 -0.00125 0.007678125 0.491199
232 1 -0.032484375 -0.00125 0.008859375 0.364682
233 1 -0.032484375 -0.00125 0.010040625 0.43841
234 1 -0.032484375 -0.00125 0.011221875 0.302924
235 1 -0.032484375 -0.00125 0.012403125 0.337565
236 1 -0.032484375 -0.00125 0.013584375 0.214139
237 1 -0.032484375 -0.00125 0.014765625 0.222798
238 1 -0.032484375 -0.00125 0.015946875 0.137365
239 1 -0.032484375 -0.00125 0.017128125 0.129995
240 1 -0.032484375 -0.00125 0.018309375 0.0858029
241 1 -0.032484375 0.000116666666667 -0.018309375 0.115558
242 1 -0.032484375 0.000116666666667 -0.017128125 0.177698
243 1 -0.032484375 0.000116666666667 -0.015946875 0.194184
244 1 -0.032484375 0.000116666666667 -0.014765625 0.247331
245 1 -0.032484375 0.000116666666667 -0.013584375 0.277739
246 1 -0.032484375 0.000116666666667 -0.012403125 0.30869
247 1 -0.032484375 0.000116666666667 -0.011221875 0.343813
248 1 -0.032484375 0.000116666666667 -0.010040625 0.345123
249 1 -0.032484375 0.000116666666667 -0.008859375 0.384788
250 1 -0.032484375 0.000116666666667 -0.007678125 0.364948
251 1 -0.032484375 0.000116666666667 -0.006496875 0.407013
252 1 -0.032484375 0.000116666666667 -0.005315625 0.380364
253 1 -0.032484375 0.000116666666667 -0.004134375 0.428579
254 1 -0.032484375 0.000116666666667 -0.002953125 0.395921
255 1 -0.032484375 0.000116666666667 -0.001771875 0.454641
256 1 -0.032484375 0.000116666666667 -0.000590625 0.413691
257 1 -0.032484375 0.000116666666667 0.000590625 0.481977
258 1 -0.032484375 0.000116666666667 0.001771875 0.427836
259 1 -0.032484375 0.000116666666667 0.002953125 0.501048
260 1 -0.032484375 0.000116666666667 0.004134375 0.42503
261 1 -0.032484375 0.000116666666667 0.005315625 0.509358
262 1 -0.032484375 0.000116666666667 0.006496875 0.407562
263 1 -0.032484375 0.000116666666667 0.007678125 0.491199
264 1 -0.032484375 0.000116666666667 0.008859375 0.364682
265 1 -0.032484375 0.000116666666667 0.010040625 0.43841
266 1 -0.032484375 0.000116666666667 0.011221875 0.302924
267 1 -0.032484375 0.000116666666667 0.012403125 0.337565
268 1 -0.032484375 0.000116666666667 0.013584375 0.214139
269 1 -0.032484375 0.000116666666667 0.014765625 0.222798
270 1 -0.032484375 0.000116666666667 0.015946875 0.137365
271 1 -0.032484375 0.000116666666667 0.017128125 0.129995
272 1 -0.032484375 0.000116666666667 0.018309375 0.0858029
273 1 -0.031303125 -0.00261666666667 -0.019490625 0.265551
274 1 -0.031303125 -0.00261666666667 -0.018309375 0.238549
275 1 -0.031303125 -0.00261666666667 -0.017128125 0.369377
276 1 -0.031303125 -0.00261666666667 -0.015946875 0.374145
277 1 -0.031303125 -0.00261666666667 -0.014765625 0.455709
278 1 -0.031303125 -0.00261666666667 -0.013584375 0.478456
279 1 -0.031303125 -0.00261666666667 -0.012403125 0.50804
280 1 -0.031303125 -0.00261666666667 -0.011221875 0.541148
281 1 -0.031303125 -0.00261666666667 -0.010040625 0.534817
282 1 -0.031303125 -0.00261666666667 -0.008859375 0.563875
283 1 -0.031303125 -0.00261666666667 -0.007678125 0.544758
284 1 -0.031303125 -0.00261666666667 -0.006496875 0.57254
285 1 -0.031303125 -0.00261666666667 -0.005315625 0.554458
286 1 -0.031303125 -0.00261666666667 -0.004134375 0.579128
287 1 -0.031303125 -0.00261666666667 -0.002953125 0.564647
288 1 -0.031303125 -0.00261666666667 -0.001771875 0.591454
289 1 -0.031303125 -0.00261666666667 -0.000590625 0.580954
290 1 -0.031303125 -0.00261666666667 0.000590625 0.60605
291 1 -0.031303125 -0.00261666666667 0.001771875 0.59448
292 1 -0.031303125 -0.00261666666667 0.002953125 0.621304
293 1 -0.031303125 -0.00261666666667 0.004134375 0.601355
294 1 -0.031303125 -0.00261666666667 0.005315625 0.627558
295 1 -0.031303125 -0.00261666666667 0.006496875 0.596601
296 1 -0.031303125 -0.00261666666667 0.007678125 0.623566
297 1 -0.031303125 -0.00261666666667 0.008859375 0.576391
298 1 -0.031303125 -0.00261666666667 0.010040625 0.591539
299 1 -0.031303125 -0.00261666666667 0.011221875 0.53043
300 1 -0.031303125 -0.00261666666667 0.012403125 0.512227
301 1 -0.031303125 -0.00261666666667 0.013584375 0.445166
302 1 -0.031303125 -0.00261666666667 0.014765625 0.380597
303 1 -0.031303125 -0.00261666666667 0.015946875 0.338992
304 1 -0.031303125 -0.00261666666667 0.017128125 0.241698
305 1 -0.031303125 -0.00261666666667 0.018309375 0.23536
306 1 -0.031303125 -0.00261666666667 0.019490625 0.140867
307 1 -0.031303125 -0.00125 -0.019490625 0.265551
308 1 -0.031303125 -0.00125 -0.018309375 0.238549
309 1 -0.031303125 -0.00125 -0.017128125 0.369377
310 1 -0.031303125 -0.00125 -0.015946875 0.374145
311 1 -0.031303125 -0.00125 -0.014765625 0.455709
312 1 -0.031303125 -0.00125 -0.013584375 0.478456
313 1 -0.031303125 -0.00125 -0.012403125 0.50804
314 1 -0.031303125 -0.00125 -0.011221875 0.541148
315 1 -0.031303125 -0.00125 -0.010040625 0.534817
316 1 -0.031303125 -0.00125 -0.008859375 0.563875
317 1 -0.031303125 -0.00125 -0.007678125 0.544758
318 1 -0.031303125 -0.00125 -0.006496875 0.57254
319 1 -0.031303125 -0.00125 -0.005315625 0.554458
320 1 -0.031303125 -0.00125 -0.004134375 0.579128
321 1 -0.031303125 -0.00125 -0.002953125 0.564647
322 1 -0.031303125 -0.00125 -0.001771875 0.591454
323 1 -0.031303125 -0.00125 -0.000590625 0.580954
324 1 -0.031303125 -0.00125 0.000590625 0.60605
325 1 -0.031303125 -0.00125 0.001771875 0.59448
326 1 -0.031303125 -0.00125 0.002953125 0.621304
327 1 -0.031303125 -0.00125 0.004134375 0.601355
328 1 -0.031303125 -0.00125 0.005315625 0.627558
329 1 -0.031303125 -0.00125 0.006496875 0.596601
330 1 -0.031303125 -0.00125 0.007678125 0.623566
331 1 -0.031303125 -0.00125 0.008859375 0.576391
332 1 -0.031303125 -0.00125 0.010040625 0.591539
333 1 -0.031303125 -0.00125 0.011221875 0.53043
334 1 -0.031303125 -0.00125 0.012403125 0.512227
335 1 -0.031303125 -0.00125 0.013584375 0.445166
336 1 -0.031303125 -0.00125 0.014765625 0.380597
337 1 -0.031303125 -0.00125 0.015946875 0.338992
338 1 -0.031303125 -0.00125 0.017128125 0.241698
339 1 -0.031303125 -0.00125 0.018309375 0.23536
340 1 -0.031303125 -0.00125 0.019490625 0.140867
341 1 -0.031303125 0.000116666666667 -0.019490625 0.265551
342 1 -0.031303125 0.000116666666667 -0.018309375 0.238549
343 1 -0.031303125 0.000116666666667 -0.017128125 0.369377
344 1 -0.031303125 0.000116666666667 -0.015946875 0.374145
345 1 -0.031303125 0.000116666666667 -0.014765625 0.455709
346 1 -0.031303125 0.000116666666667 -0.013584375 0.478456
347 1 -0.031303125 0.000116666666667 -0.012403125 0.50804
348 1 -0.031303125 0.000116666666667 -0.011221875 0.541148
349 1 -0.031303125 0.000116666666667 -0.010040625 0.534817
350 1 -0.031303125 0.000116666666667 -0.008859375 0.563875
351 1 -0.031303125 0.000116666666667 -0.007678125 0.544758
352 1 -0.031303125 0.000116666666667 -0.006496875 0.57254
353 1 -0.031303125 0.000116666666667 -0.005315625 0.554458
354 1 -0.031303125 0.000116666666667 -0.004134375 0.579128
355 1 -0.031303125 0.000116666666667 -0.002953125 0.564647
356 1 -0.031303125 0.000116666666667 -0.001771875 0.591454
357 1 -0.031303125 0.000116666666667 -0.000590625 0.580954
358 1 -0.031303125 0.000116666666667 0.000590625 0.60605
359 1 -0.031303125 0.000116666666667 0.001771875 0.59448
360 1 -0.031303125 0.000116666666667 0.002953125 0.621304
361 1 -0.031303125 0.000116666666667 0.004134375 0.601355
362 1 -0.031303125 0.000116666666667 0.005315625 0.627558
363 1 -0.031303125 0.000116666666667 0.006496875 0.596601
364 1 -0.031303125 0.000116666666667 0.007678125 0.623566
365 1 -0.031303125 0.000116666666667 0.008859375 0.576391
366 1 -0.031303125 0.000116666666667 0.010040625 0.591539
367 1 -0.031303125 0.000116666666667 0.011221875 0.53043
368 1 -0.031303125 0.000116666666667 0.012403125 0.512227
369 1 -0.031303125 0.000116666666667 0.013584375 0.445166
370 1 -0.031303125 0.000116666666667 0.014765625 0.380597
371 1 -0.031303125 0.000116666666667 0.015946875 0.338992
372 1 -0.031303125 0.000116666666667 0.017128125 0.241698
373 1 -0.031303125 0.000116666666667 0.018309375 0.23536
374 1 -0.031303125 0.000116666666667 0.019490625 0.140867
375 1 -0.030121875 -0.00261666666667 -0.020671875 0.185505
376 1 -0.030121875 -0.00261666666667 -0.019490625 0.267717
377 1 -0.030121875 -0.00261666666667 -0.018309375 0.320528
378 1 -0.030121875 -0.00261666666667 -0.017128125 0.389148
379 1 -0.030121875 -0.00261666666667 -0.015946875 0.444409
380 1 -0.030121875 -0.00261666666667 -0.014765625 0.463848
381 1 -0.030121875 -0.00261666666667 -0.013584375 0.521322
382 1 -0.030121875 -0.00261666666667 -0.012403125 0.512223
383 1 -0.030121875 -0.00261666666667 -0.011221875 0.556922
384 1 -0.030121875 -0.00261666666667 -0.010040625 0.53582
385 1 -0.030121875 -0.00261666666667 -0.008859375 0.567871
386 1 -0.030121875 -0.00261666666667 -0.007678125 0.542932
387 1 -0.030121875 -0.00261666666667 -0.006496875 0.568186
388 1 -0.030121875 -0.00261666666667 -0.005315625 0.546542
389 1 -0.030121875 -0.00261666666667 -0.004134375 0.571056
390 1 -0.030121875 -0.00261666666667 -0.002953125 0.551665
391 1 -0.030121875 -0.00261666666667 -0.001771875 0.582575
392 1 -0.030121875 -0.00261666666667 -0.000590625 0.562749
393 1 -0.030121875 -0.00261666666667 0.000590625 0.601277
394 1 -0.030121875 -0.00261666666667 0.001771875 0.574647
395 1 -0.030121875 -0.00261666666667 0.002953125 0.620483
396 1 -0.030121875 -0.00261666666667 0.004134375 0.577024
397 1 -0.030121875 -0.00261666666667 0.005315625 0.640866
398 1 -0.030121875 -0.00261666666667 0.006496875 0.571998
399 1 -0.030121875 -0.00261666666667 0.007678125 0.648261
400 1 -0.030121875 -0.00261666666667 0.008859375 0.549259
401 1 -0.030121875 -0.00261666666667 0.010040625 0.638097
402 1 -0.030121875 -0.00261666666667 0.011221875 0.503317
403 1 -0.030121875 -0.00261666666667 0.012403125 0.590193
404 1 -0.030121875 -0.00261666666667 0.013584375 0.419573
405 1 -0.030121875 -0.00261666666667 0.014765625 0.495814
406 1 -0.030121875 -0.00261666666667 0.015946875 0.318563
407 1 -0.030121875 -0.00261666666667 0.017128125 0.352614
408 1 -0.030121875 -0.00261666666667 0.018309375 0.209204
409 1 -0.030121875 -0.00261666666667 0.019490625 0.211975
410 1 -0.030121875 -0.00261666666667 0.020671875 0.134468
411 1 -0.030121875 -0.00125 -0.020671875 0.185505
412 1 -0.030121875 -0.00125 -0.019490625 0.267717
413 1 -0.030121875 -0.00125 -0.018309375 0.320528
414 1 -0.030121875 -0.00125 -0.017128125 0.389148
415 1 -0.030121875 -0.00125 -0.015946875 0.444409
416 1 -0.030121875 -0.00125 -0.014765625 0.463848
417 1 -0.030121875 -0.00125 -0.013584375 0.521322
418 1 -0.030121875 -0.00125 -0.012403125 0.512223
419 1 -0.030121875 -0.00125 -0.011221875 0.556922
420 1 -0.030121875 -0.00125 -0.010040625 0.53582
421 1 -0.030121875 -0.00125 -0.008859375 0.567871
422 1 -0.030121875 -0.00125 -0.007678125 0.542932
423 1 -0.030121875 -0.00125 -0.006496875 0.568186
424 1 -0.030121875 -0.00125 -0.005315625 0.546542
425 1 -0.030121875 -0.00125 -0.004134375 0.571056
426 1 -0.030121875 -0.00125 -0.002953125 0.551665
427 1 -0.030121875 -0.00125 -0.001771875 0.582575
428 1 -0.030121875 -0.00125 -0.000590625 0.562749
429 1 -0.030121875 -0.00125 0.000590625 0.601277
430 1 -0.030121875 -0.00125 0.001771875 0.574647
431 1 -0.030121875 -0.00125 0.002953125 0.620483
432 1 -0.030121875 -0.00125 0.004134375 0.577024
433 1 -0.030121875 -0.00125 0.005315625 0.640866
434 1 -0.030121875 -0.00125 0.006496875 0.571998
435 1 -0.030121875 -0.00125 0.007678125 0.648261
436 1 -0.030121875 -0.00125 0.008859375 0.549259
437 1 -0.030121875 -0.00125 0.010040625 0.638097
438 1 -0.030121875 -0.00125 0.011221875 0.503317
439 1 -0.030121875 -0.00125 0.012403125 0.590193
440 1 -0.030121875 -0.00125 0.013584375 0.419573
441 1 -0.030121875 -0.00125 0.014765625 0.495814
442 1 -0.030121875 -0.00125 0.015946875 0.318563
443 1 -0.030121875 -0.00125 0.017128125 0.352614
444 1 -0.030121875 -0.00125 0.018309375 0.209204
445 1 -0.030121875 -0.00125 0.019490625 0.211975
446 1 -0.030121875 -0.00125 0.020671875 0.134468
447 1 -0.030121875 0.000116666666667 -0.020671875 0.185505
448 1 -0.030121875 0.000116666666667 -0.019490625 0.267717
449 1 -0.030121875 0.000116666666667 -0.018309375 0.320528
450 1 -0.030121875 0.000116666666667 -0.017128125 0.389148
451 1 -0.030121875 0.000116666666667 -0.015946875 0.444409
452 1 -0.030121875 0.000116666666667 -0.014765625 0.463848
453 1 -0.030121875 0.000116666666667 -0.013584375 0.521322
454 1 -0.030121875 0.000116666666667 -0.012403125 0.512223
455 1 -0.030121875 0.000116666666667 -0.011221875 0.556922
456 1 -0.030121875 0.000116666666667 -0.010040625 0.53582
457 1 -0.030121875 0.000116666666667 -0.008859375 0.567871
458 1 -0.030121875 0.000116666666667 -0.007678125 0.542932
459 1 -0.030121875 0.000116666666667 -0.006496875 0.568186
460 1 -0.030121875 0.000116666666667 -0.005315625 0.546542
461 1 -0.030121875 0.000116666666667 -0.004134375 0.571056
462 1 -0.030121875 0.000116666666667 -0.002953125 0.551665
463 1 -0.030121875 0.000116666666667 -0.001771875 0.582575
464 1 -0.030121875 0.000116666666667 -0.000590625 0.562749
465 1 -0.030121875 0.000116666666667 0.000590625 0.601277
466 1 -0.030121875 0.000116666666667 0.001771875 0.574647
467 1 -0.030121875 0.000116666666667 0.002953125 0.620483
468 1 -0.030121875 0.000116666666667 0.004134375 0.577024
469 1 -0.030121875 0.000116666666667 0.005315625 0.640866
470 1 -0.030121875 0.000116666666667 0.006496875 0.571998
471 1 -0.030121875 0.000116666666667 0.007678125 0.648261
472 1 -0.030121875 0.000116666666667 0.008859375 0.549259
473 1 -0.030121875 0.000116666666667 0.010040625 0.638097
474 1 -0.030121875 0.000116666666667 0.011221875 0.503317
475 1 -0.030121875 0.000116666666667 0.012403125 0.590193
476 1 -0.030121875 0.000116666666667 0.013584375 0.419573
477 1 -0.030121875 0.000116666666667 0.014765625 0.495814
478 1 -0.030121875 0.000116666666667 0.015946875 0.318563
479 1 -0.030121875 0.000116666666667 0.017128125 0.352614
480 1 -0.030121875 0.000116666666667 0.018309375 0.209204
481 1 -0.030121875 0.000116666666667 0.019490625 0.211975
482 1 -0.030121875 0.000116666666667 0.020671875 0.134468
483 1 -0.028940625 -0.00261666666667 -0.021853125 0.316866
484 1 -0.028940625 -0.00261666666667 -0.020671875 0.315482
485 1 -0.028940625 -0.00261666666667 -0.019490625 0.448514
486 1 -0.028940625 -0.00261666666667 -0.018309375 0.481959
487 1 -0.028940625 -0.00261666666667 -0.017128125 0.535052
488 1 -0.028940625 -0.00261666666667 -0.015946875 0.569782
489 1 -0.028940625 -0.00261666666667 -0.014765625 0.575918
490 1 -0.028940625 -0.00261666666667 -0.013584375 0.600317
491 1 -0.028940625 -0.00261666666667 -0.012403125 0.596633
492 1 -0.028940625 -0.00261666666667 -0.011221875 0.61911
493 1 -0.028940625 -0.00261666666667 -0.010040625 0.608067
494 1 -0.028940625 -0.00261666666667 -0.008859375 0.624972
495 1 -0.028940625 -0.00261666666667 -0.007678125 0.610933
496 1 -0.028940625 -0.00261666666667 -0.006496875 0.627483
497 1 -0.028940625 -0.00261666666667 -0.005315625 0.615787
498 1 -0.028940625 -0.00261666666667 -0.004134375 0.630471
499 1 -0.028940625 -0.00261666666667 -0.002953125 0.622266
500 1 -0.028940625 -0.00261666666667 -0.001771875 0.639947
501 1 -0.028940625 -0.00261666666667 -0.000590625 0.636124
502 1 -0.028940625 -0.00261666666667 0.000590625 0.652562
503 1 -0.028940625 -0.00261666666667 0.001771875 0.648254
504 1 -0.028940625 -0.00261666666667 0.002953125 0.666736
505 1 -0.028940625 -0.00261666666667 0.004134375 0.656172
506 1 -0.028940625 -0.00261666666667 0.005315625 0.674629
507 1 -0.028940625 -0.00261666666667 0.006496875 0.655059
508 1 -0.028940625 -0.00261666666667 0.007678125 0.67392
509 1 -0.028940625 -0.00261666666667 0.008859375 0.641166
510 1 -0.028940625 -0.00261666666667 0.010040625 0.6634
511 1 -0.028940625 -0.00261666666667 0.011221875 0.613811
512 1 -0.028940625 -0.00261666666667 0.012403125 0.643097
513 1 -0.028940625 -0.00261666666667 0.013584375 0.57027
514 1 -0.028940625 -0.00261666666667 0.014765625 0.596823
515 1 -0.028940625 -0.00261666666667 0.015946875 0.503122
516 1 -0.028940625 -0.00261666666667 0.017128125 0.495764
517 1 -0.028940625 -0.00261666666667 0.018309375 0.401832
518 1 -0.028940625 -0.00261666666667 0.019490625 0.351665
519 1 -0.028940625 -0.00261666666667 0.020671875 0.300166
520 1 -0.028940625 -0.00261666666667 0.021853125 0.228427
521 1 -0.028940625 -0.00125 -0.021853125 0.316866
522 1 -0.028940625 -0.00125 -0.020671875 0.315482
523 1 -0.028940625 -0.00125 -0.019490625 0.448514
524 1 -0.028940625 -0.00125 -0.018309375 0.481959
525 1 -0.028940625 -0.00125 -0.017128125 0.535052
526 1 -0.028940625 -0.00125 -0.015946875 0.569782
527 1 -0.028940625 -0.00125 -0.014765625 0.575918
528 1 -0.028940625 -0.00125 -0.013584375 0.600317
529 1 -0.028940625 -0.00125 -0.012403125 0.596633
530 1 -0.028940625 -0.00125 -0.011221875 0.61911
531 1 -0.028940625 -0.00125 -0.010040625 0.608067
532 1 -0.028940625 -0.00125 -0.008859375 0.624972
533 1 -0.028940625 -0.00125 -0.007678125 0.610933
534 1 -0.028940625 -0.00125 -0.006496875 0.627483
535 1 -0.028940625 -0.00125 -0.005315625 0.615787
536 1 -0.028940625 -0.00125 -0.004134375 0.630471
537 1 -0.028940625 -0.00125 -0.002953125 0.622266