ITEM: TIMESTEP
0
ITEM: NUMBER OF ATOMS
9240
ITEM: BOX BOUNDS ss ss ss
-3.7007399999999996e-02 3.7007399999999996e-02
-2.0002499999999999e-03 2.5000000000000004e-07
-3.7007399999999996e-02 3.7007399999999996e-02
ITEM: ATOMS id type x y z c_1
0 1 -0.037209375 -0.00261666666667 -0.000590625 0.318705
1 1 -0.037209375 -0.00125 -0.000590625 0.318705
2 1 -0.037209375 0.000116666666667 -0.000590625 0.318705
3 1 -0.036028125 -0.00261666666667 -0.007678125 0.349775
4 1 -0.036028125 -0.00261666666667 -0.006496875 0.242689
5 1 -0.036028125 -0.00261666666667 -0.005315625 0.352536
6 1 -0.036028125 -0.00261666666667 -0.004134375 0.244636
7 1 -0.036028125 -0.00261666666667 -0.002953125 0.354447
8 1 -0.036028125 -0.00261666666667 -0.001771875 0.246719
9 1 -0.036028125 -0.00261666666667 -0.000590625 0.355822
10 1 -0.036028125 -0.00261666666667 0.000590625 0.248588
11 1 -0.036028125 -0.00261666666667 0.001771875 0.355428
12 1 -0.036028125 -0.00261666666667 0.002953125 0.248406
13 1 -0.036028125 -0.00261666666667 0.004134375 0.352025
14 1 -0.036028125 -0.00261666666667 0.005315625 0.246028
15 1 -0.036028125 -0.00261666666667 0.006496875 0.347249
16 1 -0.036028125 -0.00261666666667 0.007678125 0.242255
17 1 -0.036028125 -0.00125 -0.007678125 0.349775
18 1 -0.036028125 -0.00125 -0.006496875 0.242689
19 1 -0.036028125 -0.00125 -0.005315625 0.352536
20 1 -0.036028125 -0.00125 -0.004134375 0.244636
21 1 -0.036028125 -0.00125 -0.002953125 0.354447
22 1 -0.036028125 -0.00125 -0.001771875 0.246719
23 1 -0.036028125 -0.00125 -0.000590625 0.355822
24 1 -0.036028125 -0.00125 0.000590625 0.248588
25 1 -0.036028125 -0.00125 0.001771875 0.355428
26 1 -0.036028125 -0.00125 0.002953125 0.248406
27 1 -0.036028125 -0.00125 0.004134375 0.352025
28 1 -0.036028125 -0.00125 0.005315625 0.246028
29 1 -0.036028125 -0.00125 0.006496875 0.347249
30 1 -0.036028125 -0.00125 0.007678125 0.242255
31 1 -0.036028125 0.000116666666667 -0.007678125 0.349775
32 1 -0.036028125 0.000116666666667 -0.006496875 0.242689
33 1 -0.036028125 0.000116666666667 -0.005315625 0.352536
34 1 -0.036028125 0.000116666666667 -0.004134375 0.244636
35 1 -0.036028125 0.000116666666667 -0.002953125 0.354447
36 1 -0.036028125 0.000116666666667 -0.001771875 0.246719
37 1 -0.036028125 0.000116666666667 -0.000590625 0.355822
38 1 -0.036028125 0.000116666666667 0.000590625 0.248588
39 1 -0.036028125 0.000116666666667 0.001771875 0.355428
40 1 -0.036028125 0.000116666666667 0.002953125 0.248406
41 1 -0.036028125 0.000116666666667 0.004134375 0.352025
42 1 -0.036028125 0.000116666666667 0.005315625 0.246028
43 1 -0.036028125 0.000116666666667 0.006496875 0.347249
44 1 -0.036028125 0.000116666666667 0.007678125 0.242255
45 1 -0.034846875 -0.00261666666667 -0.011221875 0.338717
46 1 -0.034846875 -0.00261666666667 -0.010040625 0.173061
47 1 -0.034846875 -0.00261666666667 -0.008859375 0.353629
48 1 -0.034846875 -0.00261666666667 -0.007678125 0.178731
49 1 -0.034846875 -0.00261666666667 -0.006496875 0.366915
50 1 -0.034846875 -0.00261666666667 -0.005315625 0.183658
51 1 -0.034846875 -0.00261666666667 -0.004134375 0.378219
52 1 -0.034846875 -0.00261666666667 -0.002953125 0.18792
53 1 -0.034846875 -0.00261666666667 -0.001771875 0.386043
54 1 -0.034846875 -0.00261666666667 -0.000590625 0.19101
55 1 -0.034846875 -0.00261666666667 0.000590625 0.389421
56 1 -0.034846875 -0.00261666666667 0.001771875 0.192589
57 1 -0.034846875 -0.00261666666667 0.002953125 0.386084
58 1 -0.034846875 -0.00261666666667 0.004134375 0.189603
59 1 -0.034846875 -0.00261666666667 0.005315625 0.37593
60 1 -0.034846875 -0.00261666666667 0.006496875 0.184807
61 1 -0.034846875 -0.00261666666667 0.007678125 0.36055
62 1 -0.034846875 -0.00261666666667 0.008859375 0.178895
63 1 -0.034846875 -0.00261666666667 0.010040625 0.343345
64 1 -0.034846875 -0.00261666666667 0.011221875 0.174247
65 1 -0.034846875 -0.00125 -0.011221875 0.338717
66 1 -0.034846875 -0.00125 -0.010040625 0.173061
67 1 -0.034846875 -0.00125 -0.008859375 0.353629
68 1 -0.034846875 -0.00125 -0.007678125 0.178731
69 1 -0.034846875 -0.00125 -0.006496875 0.366915
70 1 -0.034846875 -0.00125 -0.005315625 0.183658
71 1 -0.034846875 -0.00125 -0.004134375 0.378219
72 1 -0.034846875 -0.00125 -0.002953125 0.18792
73 1 -0.034846875 -0.00125 -0.001771875 0.386043
74 1 -0.034846875 -0.00125 -0.000590625 0.19101
75 1 -0.034846875 -0.00125 0.000590625 0.389421
76 1 -0.034846875 -0.00125 0.001771875 0.192589
77 1 -0.034846875 -0.00125 0.002953125 0.386084
78 1 -0.034846875 -0.00125 0.004134375 0.189603
79 1 -0.034846875 -0.00125 0.005315625 0.37593
80 1 -0.034846875 -0.00125 0.006496875 0.184807
81 1 -0.034846875 -0.00125 0.007678125 0.36055
82 1 -0.034846875 -0.00125 0.008859375 0.178895
83 1 -0.034846875 -0.00125 0.010040625 0.343345
84 1 -0.034846875 -0.00125 0.011221875 0.174247
85 1 -0.034846875 0.000116666666667 -0.011221875 0.338717
86 1 -0.034846875 0.000116666666667 -0.010040625 0.173061
87 1 -0.034846875 0.000116666666667 -0.008859375 0.353629
88 1 -0.034846875 0.000116666666667 -0.007678125 0.178731
89 1 -0.034846875 0.000116666666667 -0.006496875 0.366915
90 1 -0.034846875 0.000116666666667 -0.005315625 0.183658
91 1 -0.034846875 0.000116666666667 -0.004134375 0.378219
92 1 -0.034846875 0.000116666666667 -0.002953125 0.18792
93 1 -0.034846875 0.000116666666667 -0.001771875 0.386043
94 1 -0.034846875 0.000116666666667 -0.000590625 0.19101
95 1 -0.034846875 0.000116666666667 0.000590625 0.389421
96 1 -0.034846875 0.000116666666667 0.001771875 0.192589
97 1 -0.034846875 0.000116666666667 0.002953125 0.386084
98 1 -0.034846875 0.000116666666667 0.004134375 0.189603
99 1 -0.034846875 0.000116666666667 0.005315625 0.37593
100 1 -0.034846875 0.000116666666667 0.006496875 0.184807
101 1 -0.034846875 0.000116666666667 0.007678125 0.36055
102 1 -0.034846875 0.000116666666667 0.008859375 0.178895
103 1 -0.034846875 0.000116666666667 0.010040625 0.343345
104 1 -0.034846875 0.000116666666667 0.011221875 0.174247
105 1 -0.033665625 -0.00261666666667 -0.013584375 0.186305
106 1 -0.033665625 -0.00261666666667 -0.012403125 0.299728
107 1 -0.033665625 -0.00261666666667 -0.011221875 0.189558
108 1 -0.033665625 -0.00261666666667 -0.010040625 0.308802
109 1 -0.033665625 -0.00261666666667 -0.008859375 0.194754
110 1 -0.033665625 -0.00261666666667 -0.007678125 0.317438
111 1 -0.033665625 -0.00261666666667 -0.006496875 0.200189
112 1 -0.033665625 -0.00261666666667 -0.005315625 0.324492
113 1 -0.033665625 -0.00261666666667 -0.004134375 0.204795
114 1 -0.033665625 -0.00261666666667 -0.002953125 0.328707
115 1 -0.033665625 -0.00261666666667 -0.001771875 0.208969
116 1 -0.033665625 -0.00261666666667 -0.000590625 0.33099
117 1 -0.033665625 -0.00261666666667 0.000590625 0.21287
118 1 -0.033665625 -0.00261666666667 0.001771875 0.330251
119 1 -0.033665625 -0.00261666666667 0.002953125 0.213278
120 1 -0.033665625 -0.00261666666667 0.004134375 0.324016
121 1 -0.033665625 -0.00261666666667 0.005315625 0.209419
122 1 -0.033665625 -0.00261666666667 0.006496875 0.31436
123 1 -0.033665625 -0.00261666666667 0.007678125 0.203815
124 1 -0.033665625 -0.00261666666667 0.008859375 0.304622
125 1 -0.033665625 -0.00261666666667 0.010040625 0.200005
126 1 -0.033665625 -0.00261666666667 0.011221875 0.296762
127 1 -0.033665625 -0.00261666666667 0.012403125 0.197193
128 1 -0.033665625 -0.00261666666667 0.013584375 0.291297
129 1 -0.033665625 -0.00125 -0.013584375 0.186305
130 1 -0.033665625 -0.00125 -0.012403125 0.299728
131 1 -0.033665625 -0.00125 -0.011221875 0.189558
132 1 -0.033665625 -0.00125 -0.010040625 0.308802
133 1 -0.033665625 -0.00125 -0.008859375 0.194754
134 1 -0.033665625 -0.00125 -0.007678125 0.317438
135 1 -0.033665625 -0.00125 -0.006496875 0.200189
136 1 -0.033665625 -0.00125 -0.005315625 0.324492
137 1 -0.033665625 -0.00125 -0.004134375 0.204795
138 1 -0.033665625 -0.00125 -0.002953125 0.328707
139 1 -0.033665625 -0.00125 -0.001771875 0.208969
140 1 -0.033665625 -0.00125 -0.000590625 0.33099
141 1 -0.033665625 -0.00125 0.000590625 0.21287
142 1 -0.033665625 -0.00125 0.001771875 0.330251
143 1 -0.033665625 -0.00125 0.002953125 0.213278
144 1 -0.033665625 -0.00125 0.004134375 0.324016
145 1 -0.033665625 -0.00125 0.005315625 0.209419
146 1 -0.033665625 -0.00125 0.006496875 0.31436
147 1 -0.033665625 -0.00125 0.007678125 0.203815
148 1 -0.033665625 -0.00125 0.008859375 0.304622
149 1 -0.033665625 -0.00125 0.010040625 0.200005
150 1 -0.033665625 -0.00125 0.011221875 0.296762
151 1 -0.033665625 -0.00125 0.012403125 0.197193
152 1 -0.033665625 -0.00125 0.013584375 0.291297
153 1 -0.033665625 0.000116666666667 -0.013584375 0.186305
154 1 -0.033665625 0.000116666666667 -0.012403125 0.299728
155 1 -0.033665625 0.000116666666667 -0.011221875 0.189558
156 1 -0.033665625 0.000116666666667 -0.010040625 0.308802
157 1 -0.033665625 0.000116666666667 -0.008859375 0.194754
158 1 -0.033665625 0.000116666666667 -0.007678125 0.317438
159 1 -0.033665625 0.000116666666667 -0.006496875 0.200189
160 1 -0.033665625 0.000116666666667 -0.005315625 0.324492
161 1 -0.033665625 0.000116666666667 -0.004134375 0.204795
162 1 -0.033665625 0.000116666666667 -0.002953125 0.328707
163 1 -0.033665625 0.000116666666667 -0.001771875 0.208969
164 1 -0.033665625 0.000116666666667 -0.000590625 0.33099
165 1 -0.033665625 0.000116666666667 0.000590625 0.21287
166 1 -0.033665625 0.000116666666667 0.001771875 0.330251
167 1 -0.033665625 0.000116666666667 0.002953125 0.213278
168 1 -0.033665625 0.000116666666667 0.004134375 0.324016
169 1 -0.033665625 0.000116666666667 0.005315625 0.209419
170 1 -0.033665625 0.000116666666667 0.006496875 0.31436
171 1 -0.033665625 0.000116666666667 0.007678125 0.203815
172 1 -0.033665625 0.000116666666667 0.008859375 0.304622
173 1 -0.033665625 0.000116666666667 0.010040625 0.200005
174 1 -0.033665625 0.000116666666667 0.011221875 0.296762
175 1 -0.033665625 0.000116666666667 0.012403125 0.197193
176 1 -0.033665625 0.000116666666667 0.013584375 0.291297
177 1 -0.032484375 -0.00261666666667 -0.018309375 0.268091
178 1 -0.032484375 -0.00261666666667 -0.017128125 0.120082
179 1 -0.032484375 -0.00261666666667 -0.015946875 0.286195
180 1 -0.032484375 -0.00261666666667 -0.014765625 0.123918
181 1 -0.032484375 -0.00261666666667 -0.013584375 0.308704
182 1 -0.032484375 -0.00261666666667 -0.012403125 0.129411
183 1 -0.032484375 -0.00261666666667 -0.011221875 0.334842
184 1 -0.032484375 -0.00261666666667 -0.010040625 0.137289
185 1 -0.032484375 -0.00261666666667 -0.008859375 0.361483
186 1 -0.032484375 -0.00261666666667 -0.007678125 0.146302
187 1 -0.032484375 -0.00261666666667 -0.006496875 0.386388
188 1 -0.032484375 -0.00261666666667 -0.005315625 0.154565
189 1 -0.032484375 -0.00261666666667 -0.004134375 0.406795
190 1 -0.032484375 -0.00261666666667 -0.002953125 0.161255
191 1 -0.032484375 -0.00261666666667 -0.001771875 0.419486
192 1 -0.032484375 -0.00261666666667 -0.000590625 0.165337
193 1 -0.032484375 -0.00261666666667 0.000590625 0.424717
194 1 -0.032484375 -0.00261666666667 0.001771875 0.167164
195 1 -0.032484375 -0.00261666666667 0.002953125 0.4193
196 1 -0.032484375 -0.00261666666667 0.004134375 0.162258
197 1 -0.032484375 -0.00261666666667 0.005315625 0.401502
198 1 -0.032484375 -0.00261666666667 0.006496875 0.154742
199 1 -0.032484375 -0.00261666666667 0.007678125 0.375026
200 1 -0.032484375 -0.00261666666667 0.008859375 0.146294
201 1 -0.032484375 -0.00261666666667 0.010040625 0.347285
202 1 -0.032484375 -0.00261666666667 0.011221875 0.139927
203 1 -0.032484375 -0.00261666666667 0.012403125 0.32346
204 1 -0.032484375 -0.00261666666667 0.013584375 0.134424
205 1 -0.032484375 -0.00261666666667 0.014765625 0.299534
206 1 -0.032484375 -0.00261666666667 0.015946875 0.130417
207 1 -0.032484375 -0.00261666666667 0.017128125 0.279132
208 1 -0.032484375 -0.00261666666667 0.018309375 0.129077
209 1 -0.032484375 -0.00125 -0.018309375 0.268091
210 1 -0.032484375 -0.00125 -0.017128125 0.120082
211 1 -0.032484375 -0.00125 -0.015946875 0.286195
212 1 -0.032484375 -0.00125 -0.014765625 0.123918
213 1 -0.032484375 -0.00125 -0.013584375 0.308704
214 1 -0.032484375 -0.00125 -0.012403125 0.129411
215 1 -0.032484375 -0.00125 -0.011221875 0.334842
216 1 -0.032484375 -0.00125 -0.010040625 0.137289
217 1 -0.032484375 -0.00125 -0.008859375 0.361483
218 1 -0.032484375 -0.00125 -0.007678125 0.146302
219 1 -0.032484375 -0.00125 -0.006496875 0.386388
220 1 -0.032484375 -0.00125 -0.005315625 0.154565
221 1 -0.032484375 -0.00125 -0.004134375 0.406795
222 1 -0.032484375 -0.00125 -0.002953125 0.161255
223 1 -0.032484375 -0.00125 -0.001771875 0.419486
224 1 -0.032484375 -0.00125 -0.000590625 0.165337
225 1 -0.032484375 -0.00125 0.000590625 0.424717
226 1 -0.032484375 -0.00125 0.001771875 0.167164
227 1 -0.032484375 -0.00125 0.002953125 0.4193
228 1 -0.032484375 -0.00125 0.004134375 0.162258
229 1 -0.032484375 -0.00125 0.005315625 0.401502
230 1 -0.032484375 -0.00125 0.006496875 0.154742
231 1 -0.032484375 -0.00125 0.007678125 0.375026
232 1 -0.032484375 -0.00125 0.008859375 0.146294
233 1 -0.032484375 -0.00125 0.010040625 0.347285
234 1 -0.032484375 -0.00125 0.011221875 0.139927
235 1 -0.032484375 -0.00125 0.012403125 0.32346
236 1 -0.032484375 -0.00125 0.013584375 0.134424
237 1 -0.032484375 -0.00125 0.014765625 0.299534
238 1 -0.032484375 -0.00125 0.015946875 0.130417
239 1 -0.032484375 -0.00125 0.017128125 0.279132
240 1 -0.032484375 -0.00125 0.018309375 0.129077
241 1 -0.032484375 0.000116666666667 -0.018309375 0.268091
242 1 -0.032484375 0.000116666666667 -0.017128125 0.120082
243 1 -0.032484375 0.000116666666667 -0.015946875 0.286195
244 1 -0.032484375 0.000116666666667 -0.014765625 0.123918
245 1 -0.032484375 0.000116666666667 -0.013584375 0.308704
246 1 -0.032484375 0.000116666666667 -0.012403125 0.129411
247 1 -0.032484375 0.000116666666667 -0.011221875 0.334842
248 1 -0.032484375 0.000116666666667 -0.010040625 0.137289
249 1 -0.032484375 0.000116666666667 -0.008859375 0.361483
250 1 -0.032484375 0.000116666666667 -0.007678125 0.146302
251 1 -0.032484375 0.000116666666667 -0.006496875 0.386388
252 1 -0.032484375 0.000116666666667 -0.005315625 0.154565
253 1 -0.032484375 0.000116666666667 -0.004134375 0.406795
254 1 -0.032484375 0.000116666666667 -0.002953125 0.161255
255 1 -0.032484375 0.000116666666667 -0.001771875 0.419486
256 1 -0.032484375 0.000116666666667 -0.000590625 0.165337
257 1 -0.032484375 0.000116666666667 0.000590625 0.424717
258 1 -0.032484375 0.000116666666667 0.001771875 0.167164
259 1 -0.032484375 0.000116666666667 0.002953125 0.4193
260 1 -0.032484375 0.000116666666667 0.004134375 0.162258
261 1 -0.032484375 0.000116666666667 0.005315625 0.401502
262 1 -0.032484375 0.000116666666667 0.006496875 0.154742
263 1 -0.032484375 0.000116666666667 0.007678125 0.375026
264 1 -0.032484375 0.000116666666667 0.008859375 0.146294
265 1 -0.032484375 0.000116666666667 0.010040625 0.347285
266 1 -0.032484375 0.000116666666667 0.011221875 0.139927
267 1 -0.032484375 0.000116666666667 0.012403125 0.32346
268 1 -0.032484375 0.000116666666667 0.013584375 0.134424
269 1 -0.032484375 0.000116666666667 0.014765625 0.299534
270 1 -0.032484375 0.000116666666667 0.015946875 0.130417
271 1 -0.032484375 0.000116666666667 0.017128125 0.279132
272 1 -0.032484375 0.000116666666667 0.018309375 0.129077
273 1 -0.031303125 -0.00261666666667 -0.019490625 0.243292
274 1 -0.031303125 -0.00261666666667 -0.018309375 0.150759
275 1 -0.031303125 -0.00261666666667 -0.017128125 0.25085
276 1 -0.031303125 -0.00261666666667 -0.015946875 0.152843
277 1 -0.031303125 -0.00261666666667 -0.014765625 0.26094
278 1 -0.031303125 -0.00261666666667 -0.013584375 0.157017
279 1 -0.031303125 -0.00261666666667 -0.012403125 0.273735
280 1 -0.031303125 -0.00261666666667 -0.011221875 0.162796
281 1 -0.031303125 -0.00261666666667 -0.010040625 0.288595
282 1 -0.031303125 -0.00261666666667 -0.008859375 0.171133
283 1 -0.031303125 -0.00261666666667 -0.007678125 0.301971
284 1 -0.031303125 -0.00261666666667 -0.006496875 0.17891
285 1 -0.031303125 -0.00261666666667 -0.005315625 0.313451
286 1 -0.031303125 -0.00261666666667 -0.004134375 0.186077
287 1 -0.031303125 -0.00261666666667 -0.002953125 0.32071
288 1 -0.031303125 -0.00261666666667 -0.001771875 0.192212
289 1 -0.031303125 -0.00261666666667 -0.000590625 0.324331
290 1 -0.031303125 -0.00261666666667 0.000590625 0.197572
291 1 -0.031303125 -0.00261666666667 0.001771875 0.32308
292 1 -0.031303125 -0.00261666666667 0.002953125 0.198984
293 1 -0.031303125 -0.00261666666667 0.004134375 0.313797
294 1 -0.031303125 -0.00261666666667 0.005315625 0.194961
295 1 -0.031303125 -0.00261666666667 0.006496875 0.29923
296 1 -0.031303125 -0.00261666666667 0.007678125 0.186846
297 1 -0.031303125 -0.00261666666667 0.008859375 0.283172
298 1 -0.031303125 -0.00261666666667 0.010040625 0.179455
299 1 -0.031303125 -0.00261666666667 0.011221875 0.269597
300 1 -0.031303125 -0.00261666666667 0.012403125 0.174503
301 1 -0.031303125 -0.00261666666667 0.013584375 0.260226
302 1 -0.031303125 -0.00261666666667 0.014765625 0.170653
303 1 -0.031303125 -0.00261666666667 0.015946875 0.253999
304 1 -0.031303125 -0.00261666666667 0.017128125 0.168737
305 1 -0.031303125 -0.00261666666667 0.018309375 0.251766
306 1 -0.031303125 -0.00261666666667 0.019490625 0.168403
307 1 -0.031303125 -0.00125 -0.019490625 0.243292
308 1 -0.031303125 -0.00125 -0.018309375 0.150759
309 1 -0.031303125 -0.00125 -0.017128125 0.25085
310 1 -0.031303125 -0.00125 -0.015946875 0.152843
311 1 -0.031303125 -0.00125 -0.014765625 0.26094
312 1 -0.031303125 -0.00125 -0.013584375 0.157017
313 1 -0.031303125 -0.00125 -0.012403125 0.273735
314 1 -0.031303125 -0.00125 -0.011221875 0.162796
315 1 -0.031303125 -0.00125 -0.010040625 0.288595
316 1 -0.031303125 -0.00125 -0.008859375 0.171133
317 1 -0.031303125 -0.00125 -0.007678125 0.301971
318 1 -0.031303125 -0.00125 -0.006496875 0.17891
319 1 -0.031303125 -0.00125 -0.005315625 0.313451
320 1 -0.031303125 -0.00125 -0.004134375 0.186077
321 1 -0.031303125 -0.00125 -0.002953125 0.32071
322 1 -0.031303125 -0.00125 -0.001771875 0.192212
323 1 -0.031303125 -0.00125 -0.000590625 0.324331
324 1 -0.031303125 -0.00125 0.000590625 0.197572
325 1 -0.031303125 -0.00125 0.001771875 0.32308
326 1 -0.031303125 -0.00125 0.002953125 0.198984
327 1 -0.031303125 -0.00125 0.004134375 0.313797
328 1 -0.031303125 -0.00125 0.005315625 0.194961
329 1 -0.031303125 -0.00125 0.006496875 0.29923
330 1 -0.031303125 -0.00125 0.007678125 0.186846
331 1 -0.031303125 -0.00125 0.008859375 0.283172
332 1 -0.031303125 -0.00125 0.010040625 0.179455
333 1 -0.031303125 -0.00125 0.011221875 0.269597
334 1 -0.031303125 -0.00125 0.012403125 0.174503
335 1 -0.031303125 -0.00125 0.013584375 0.260226
336 1 -0.031303125 -0.00125 0.014765625 0.170653
337 1 -0.031303125 -0.00125 0.015946875 0.253999
338 1 -0.031303125 -0.00125 0.017128125 0.168737
339 1 -0.031303125 -0.00125 0.018309375 0.251766
340 1 -0.031303125 -0.00125 0.019490625 0.168403
341 1 -0.031303125 0.000116666666667 -0.019490625 0.243292
342 1 -0.031303125 0.000116666666667 -0.018309375 0.150759
343 1 -0.031303125 0.000116666666667 -0.017128125 0.25085
344 1 -0.031303125 0.000116666666667 -0.015946875 0.152843
345 1 -0.031303125 0.000116666666667 -0.014765625 0.26094
346 1 -0.031303125 0.000116666666667 -0.013584375 0.157017
347 1 -0.031303125 0.000116666666667 -0.012403125 0.273735
348 1 -0.031303125 0.000116666666667 -0.011221875 0.162796
349 1 -0.031303125 0.000116666666667 -0.010040625 0.288595
350 1 -0.031303125 0.000116666666667 -0.008859375 0.171133
351 1 -0.031303125 0.000116666666667 -0.007678125 0.301971
352 1 -0.031303125 0.000116666666667 -0.006496875 0.17891
353 1 -0.031303125 0.000116666666667 -0.005315625 0.313451
354 1 -0.031303125 0.000116666666667 -0.004134375 0.186077
355 1 -0.031303125 0.000116666666667 -0.002953125 0.32071
356 1 -0.031303125 0.000116666666667 -0.001771875 0.192212
357 1 -0.031303125 0.000116666666667 -0.000590625 0.324331
358 1 -0.031303125 0.000116666666667 0.000590625 0.197572
359 1 -0.031303125 0.000116666666667 0.001771875 0.32308
360 1 -0.031303125 0.000116666666667 0.002953125 0.198984
361 1 -0.031303125 0.000116666666667 0.004134375 0.313797
362 1 -0.031303125 0.000116666666667 0.005315625 0.194961
363 1 -0.031303125 0.000116666666667 0.006496875 0.29923
364 1 -0.031303125 0.000116666666667 0.007678125 0.186846
365 1 -0.031303125 0.000116666666667 0.008859375 0.283172
366 1 -0.031303125 0.000116666666667 0.010040625 0.179455
367 1 -0.031303125 0.000116666666667 0.011221875 0.269597
368 1 -0.031303125 0.000116666666667 0.012403125 0.174503
369 1 -0.031303125 0.000116666666667 0.013584375 0.260226
370 1 -0.031303125 0.000116666666667 0.014765625 0.170653
371 1 -0.031303125 0.000116666666667 0.015946875 0.253999
372 1 -0.031303125 0.000116666666667 0.017128125 0.168737
373 1 -0.031303125 0.000116666666667 0.018309375 0.251766
374 1 -0.031303125 0.000116666666667 0.019490625 0.168403
375 1 -0.030121875 -0.00261666666667 -0.020671875 0.246659
376 1 -0.030121875 -0.00261666666667 -0.019490625 0.0992266
377 1 -0.030121875 -0.00261666666667 -0.018309375 0.26563
378 1 -0.030121875 -0.00261666666667 -0.017128125 0.102996
379 1 -0.030121875 -0.00261666666667 -0.015946875 0.295872
380 1 -0.030121875 -0.00261666666667 -0.014765625 0.110002
381 1 -0.030121875 -0.00261666666667 -0.013584375 0.334435
382 1 -0.030121875 -0.00261666666667 -0.012403125 0.120048
383 1 -0.030121875 -0.00261666666667 -0.011221875 0.382024
384 1 -0.030121875 -0.00261666666667 -0.010040625 0.134673
385 1 -0.030121875 -0.00261666666667 -0.008859375 0.431112
386 1 -0.030121875 -0.00261666666667 -0.007678125 0.150761
387 1 -0.030121875 -0.00261666666667 -0.006496875 0.473738
388 1 -0.030121875 -0.00261666666667 -0.005315625 0.164427
389 1 -0.030121875 -0.00261666666667 -0.004134375 0.507218
390 1 -0.030121875 -0.00261666666667 -0.002953125 0.175425
391 1 -0.030121875 -0.00261666666667 -0.001771875 0.525954
392 1 -0.030121875 -0.00261666666667 -0.000590625 0.180846
393 1 -0.030121875 -0.00261666666667 0.000590625 0.531369
394 1 -0.030121875 -0.00261666666667 0.001771875 0.18209
395 1 -0.030121875 -0.00261666666667 0.002953125 0.519287
396 1 -0.030121875 -0.00261666666667 0.004134375 0.172563
397 1 -0.030121875 -0.00261666666667 0.005315625 0.48837
398 1 -0.030121875 -0.00261666666667 0.006496875 0.159273
399 1 -0.030121875 -0.00261666666667 0.007678125 0.443206
400 1 -0.030121875 -0.00261666666667 0.008859375 0.144768
401 1 -0.030121875 -0.00261666666667 0.010040625 0.394939
402 1 -0.030121875 -0.00261666666667 0.011221875 0.134025
403 1 -0.030121875 -0.00261666666667 0.012403125 0.352268
404 1 -0.030121875 -0.00261666666667 0.013584375 0.125334
405 1 -0.030121875 -0.00261666666667 0.014765625 0.317258
406 1 -0.030121875 -0.00261666666667 0.015946875 0.117895
407 1 -0.030121875 -0.00261666666667 0.017128125 0.286386
408 1 -0.030121875 -0.00261666666667 0.018309375 0.114868
409 1 -0.030121875 -0.00261666666667 0.019490625 0.261338
410 1 -0.030121875 -0.00261666666667 0.020671875 0.114591
411 1 -0.030121875 -0.00125 -0.020671875 0.246659
412 1 -0.030121875 -0.00125 -0.019490625 0.0992266
413 1 -0.030121875 -0.00125 -0.018309375 0.26563
414 1 -0.030121875 -0.00125 -0.017128125 0.102996
415 1 -0.030121875 -0.00125 -0.015946875 0.295872
416 1 -0.030121875 -0.00125 -0.014765625 0.110002
417 1 -0.030121875 -0.00125 -0.013584375 0.334435
418 1 -0.030121875 -0.00125 -0.012403125 0.120048
419 1 -0.030121875 -0.00125 -0.011221875 0.382024
420 1 -0.030121875 -0.00125 -0.010040625 0.134673
421 1 -0.030121875 -0.00125 -0.008859375 0.431112
422 1 -0.030121875 -0.00125 -0.007678125 0.150761
423 1 -0.030121875 -0.00125 -0.006496875 0.473738
424 1 -0.030121875 -0.00125 -0.005315625 0.164427
425 1 -0.030121875 -0.00125 -0.004134375 0.507218
426 1 -0.030121875 -0.00125 -0.002953125 0.175425
427 1 -0.030121875 -0.00125 -0.001771875 0.525954
428 1 -0.030121875 -0.00125 -0.000590625 0.180846
429 1 -0.030121875 -0.00125 0.000590625 0.531369
430 1 -0.030121875 -0.00125 0.001771875 0.18209
431 1 -0.030121875 -0.00125 0.002953125 0.519287
432 1 -0.030121875 -0.00125 0.004134375 0.172563
433 1 -0.030121875 -0.00125 0.005315625 0.48837
434 1 -0.030121875 -0.00125 0.006496875 0.159273
435 1 -0.030121875 -0.00125 0.007678125 0.443206
436 1 -0.030121875 -0.00125 0.008859375 0.144768
437 1 -0.030121875 -0.00125 0.010040625 0.394939
438 1 -0.030121875 -0.00125 0.011221875 0.134025
439 1 -0.030121875 -0.00125 0.012403125 0.352268
440 1 -0.030121875 -0.00125 0.013584375 0.125334
441 1 -0.030121875 -0.00125 0.014765625 0.317258
442 1 -0.030121875 -0.00125 0.015946875 0.117895
443 1 -0.030121875 -0.00125 0.017128125 0.286386
444 1 -0.030121875 -0.00125 0.018309375 0.114868
445 1 -0.030121875 -0.00125 0.019490625 0.261338
446 1 -0.030121875 -0.00125 0.020671875 0.114591
447 1 -0.030121875 0.000116666666667 -0.020671875 0.246659
448 1 -0.030121875 0.000116666666667 -0.019490625 0.0992266
449 1 -0.030121875 0.000116666666667 -0.018309375 0.26563
450 1 -0.030121875 0.000116666666667 -0.017128125 0.102996
451 1 -0.030121875 0.000116666666667 -0.015946875 0.295872
452 1 -0.030121875 0.000116666666667 -0.014765625 0.110002
453 1 -0.030121875 0.000116666666667 -0.013584375 0.334435
454 1 -0.030121875 0.000116666666667 -0.012403125 0.120048
455 1 -0.030121875 0.000116666666667 -0.011221875 0.382024
456 1 -0.030121875 0.000116666666667 -0.010040625 0.134673
457 1 -0.030121875 0.000116666666667 -0.008859375 0.431112
458 1 -0.030121875 0.000116666666667 -0.007678125 0.150761
459 1 -0.030121875 0.000116666666667 -0.006496875 0.473738
460 1 -0.030121875 0.000116666666667 -0.005315625 0.164427
461 1 -0.030121875 0.000116666666667 -0.004134375 0.507218
462 1 -0.030121875 0.000116666666667 -0.002953125 0.175425
463 1 -0.030121875 0.000116666666667 -0.001771875 0.525954
464 1 -0.030121875 0.000116666666667 -0.000590625 0.180846
465 1 -0.030121875 0.000116666666667 0.000590625 0.531369
466 1 -0.030121875 0.000116666666667 0.001771875 0.18209
467 1 -0.030121875 0.000116666666667 0.002953125 0.519287
468 1 -0.030121875 0.000116666666667 0.004134375 0.172563
469 1 -0.030121875 0.000116666666667 0.005315625 0.48837
470 1 -0.030121875 0.000116666666667 0.006496875 0.159273
471 1 -0.030121875 0.000116666666667 0.007678125 0.443206
472 1 -0.030121875 0.000116666666667 0.008859375 0.144768
473 1 -0.030121875 0.000116666666667 0.010040625 0.394939
474 1 -0.030121875 0.000116666666667 0.011221875 0.134025
475 1 -0.030121875 0.000116666666667 0.012403125 0.352268
476 1 -0.030121875 0.000116666666667 0.013584375 0.125334
477 1 -0.030121875 0.000116666666667 0.014765625 0.317258
478 1 -0.030121875 0.000116666666667 0.015946875 0.117895
479 1 -0.030121875 0.000116666666667 0.017128125 0.286386
480 1 -0.030121875 0.000116666666667 0.018309375 0.114868
481 1 -0.030121875 0.000116666666667 0.019490625 0.261338
482 1 -0.030121875 0.000116666666667 0.020671875 0.114591
483 1 -0.028940625 -0.00261666666667 -0.021853125 0.221125
484 1 -0.028940625 -0.00261666666667 -0.020671875 0.134126
485 1 -0.028940625 -0.00261666666667 -0.019490625 0.22866
486 1 -0.028940625 -0.00261666666667 -0.018309375 0.135812
487 1 -0.028940625 -0.00261666666667 -0.017128125 0.240463
488 1 -0.028940625 -0.00261666666667 -0.015946875 0.140544
489 1 -0.028940625 -0.00261666666667 -0.014765625 0.259461
490 1 -0.028940625 -0.00261666666667 -0.013584375 0.147749
491 1 -0.028940625 -0.00261666666667 -0.012403125 0.280556
492 1 -0.028940625 -0.00261666666667 -0.011221875 0.157584
493 1 -0.028940625 -0.00261666666667 -0.010040625 0.304287
494 1 -0.028940625 -0.00261666666667 -0.008859375 0.169541
495 1 -0.028940625 -0.00261666666667 -0.007678125 0.326143
496 1 -0.028940625 -0.00261666666667 -0.006496875 0.181181
497 1 -0.028940625 -0.00261666666667 -0.005315625 0.345027
498 1 -0.028940625 -0.00261666666667 -0.004134375 0.190624
499 1 -0.028940625 -0.00261666666667 -0.002953125 0.35684
500 1 -0.028940625 -0.00261666666667 -0.001771875 0.198848
501 1 -0.028940625 -0.00261666666667 -0.000590625 0.362328
502 1 -0.028940625 -0.00261666666667 0.000590625 0.204988
503 1 -0.028940625 -0.00261666666667 0.001771875 0.359947
504 1 -0.028940625 -0.00261666666667 0.002953125 0.206778
505 1 -0.028940625 -0.00261666666667 0.004134375 0.345878
506 1 -0.028940625 -0.00261666666667 0.005315625 0.203208
507 1 -0.028940625 -0.00261666666667 0.006496875 0.323739
508 1 -0.028940625 -0.00261666666667 0.007678125 0.194472
509 1 -0.028940625 -0.00261666666667 0.008859375 0.298324
510 1 -0.028940625 -0.00261666666667 0.010040625 0.183064
511 1 -0.028940625 -0.00261666666667 0.011221875 0.275016
512 1 -0.028940625 -0.00261666666667 0.012403125 0.1733
513 1 -0.028940625 -0.00261666666667 0.013584375 0.256763
514 1 -0.028940625 -0.00261666666667 0.014765625 0.166853
515 1 -0.028940625 -0.00261666666667 0.015946875 0.245477
516 1 -0.028940625 -0.00261666666667 0.017128125 0.162212
517 1 -0.028940625 -0.00261666666667 0.018309375 0.24082
518 1 -0.028940625 -0.00261666666667 0.019490625 0.160419
519 1 -0.028940625 -0.00261666666667 0.020671875 0.239695
520 1 -0.028940625 -0.00261666666667 0.021853125 0.161207
521 1 -0.028940625 -0.00125 -0.021853125 0.221125
522 1 -0.028940625 -0.00125 -0.020671875 0.134126
523 1 -0.028940625 -0.00125 -0.019490625 0.22866
524 1 -0.028940625 -0.00125 -0.018309375 0.135812
525 1 -0.028940625 -0.00125 -0.017128125 0.240463
526 1 -0.028940625 -0.00125 -0.015946875 0.140544
527 1 -0.028940625 -0.00125 -0.014765625 0.259461
528 1 -0.028940625 -0.00125 -0.013584375 0.147749
529 1 -0.028940625 -0.00125 -0.012403125 0.280556
530 1 -0.028940625 -0.00125 -0.011221875 0.157584
531 1 -0.028940625 -0.00125 -0.010040625 0.304287
532 1 -0.028940625 -0.00125 -0.008859375 0.169541
533 1 -0.028940625 -0.00125 -0.007678125 0.326143
534 1 -0.028940625 -0.00125 -0.006496875 0.181181
535 1 -0.028940625 -0.00125 -0.005315625 0.345027
536 1 -0.028940625 -0.00125 -0.004134375 0.190624
537 1 -0.028940625 -0.00125 -0.002953125 0.35684