ITEM: TIMESTEP
0
ITEM: NUMBER OF ATOMS
9240
ITEM: BOX BOUNDS ss ss ss
-3.7007399999999996e-02 3.7007399999999996e-02
-2.0002499999999999e-03 2.5000000000000004e-07
-3.7007399999999996e-02 3.7007399999999996e-02
ITEM: ATOMS id type x y z c_1
0 1 -0.037209375 -0.00261666666667 -0.000590625 0.276926
1 1 -0.037209375 -0.00125 -0.000590625 0.276926
2 1 -0.037209375 0.000116666666667 -0.000590625 0.276926
3 1 -0.036028125 -0.00261666666667 -0.007678125 0.212424
4 1 -0.036028125 -0.00261666666667 -0.006496875 0.0927464
5 1 -0.036028125 -0.00261666666667 -0.005315625 0.221778
6 1 -0.036028125 -0.00261666666667 -0.004134375 0.100963
7 1 -0.036028125 -0.00261666666667 -0.002953125 0.23061
8 1 -0.036028125 -0.00261666666667 -0.001771875 0.110273
9 1 -0.036028125 -0.00261666666667 -0.000590625 0.241347
10 1 -0.036028125 -0.00261666666667 0.000590625 0.118548
11 1 -0.036028125 -0.00261666666667 0.001771875 0.248784
12 1 -0.036028125 -0.00261666666667 0.002953125 0.122622
13 1 -0.036028125 -0.00261666666667 0.004134375 0.247314
14 1 -0.036028125 -0.00261666666667 0.005315625 0.117035
15 1 -0.036028125 -0.00261666666667 0.006496875 0.232174
16 1 -0.036028125 -0.00261666666667 0.007678125 0.103041
17 1 -0.036028125 -0.00125 -0.007678125 0.212424
18 1 -0.036028125 -0.00125 -0.006496875 0.0927464
19 1 -0.036028125 -0.00125 -0.005315625 0.221778
20 1 -0.036028125 -0.00125 -0.004134375 0.100963
21 1 -0.036028125 -0.00125 -0.002953125 0.23061
22 1 -0.036028125 -0.00125 -0.001771875 0.110273
23 1 -0.036028125 -0.00125 -0.000590625 0.241347
24 1 -0.036028125 -0.00125 0.000590625 0.118548
25 1 -0.036028125 -0.00125 0.001771875 0.248784
26 1 -0.036028125 -0.00125 0.002953125 0.122622
27 1 -0.036028125 -0.00125 0.004134375 0.247314
28 1 -0.036028125 -0.00125 0.005315625 0.117035
29 1 -0.036028125 -0.00125 0.006496875 0.232174
30 1 -0.036028125 -0.00125 0.007678125 0.103041
31 1 -0.036028125 0.000116666666667 -0.007678125 0.212424
32 1 -0.036028125 0.000116666666667 -0.006496875 0.0927464
33 1 -0.036028125 0.000116666666667 -0.005315625 0.221778
34 1 -0.036028125 0.000116666666667 -0.004134375 0.100963
35 1 -0.036028125 0.000116666666667 -0.002953125 0.23061
36 1 -0.036028125 0.000116666666667 -0.001771875 0.110273
37 1 -0.036028125 0.000116666666667 -0.000590625 0.241347
38 1 -0.036028125 0.000116666666667 0.000590625 0.118548
39 1 -0.036028125 0.000116666666667 0.001771875 0.248784
40 1 -0.036028125 0.000116666666667 0.002953125 0.122622
41 1 -0.036028125 0.000116666666667 0.004134375 0.247314
42 1 -0.036028125 0.000116666666667 0.005315625 0.117035
43 1 -0.036028125 0.000116666666667 0.006496875 0.232174
44 1 -0.036028125 0.000116666666667 0.007678125 0.103041
45 1 -0.034846875 -0.00261666666667 -0.011221875 0.0873225
46 1 -0.034846875 -0.00261666666667 -0.010040625 0.150849
47 1 -0.034846875 -0.00261666666667 -0.008859375 0.104031
48 1 -0.034846875 -0.00261666666667 -0.007678125 0.1638
49 1 -0.034846875 -0.00261666666667 -0.006496875 0.116154
50 1 -0.034846875 -0.00261666666667 -0.005315625 0.171726
51 1 -0.034846875 -0.00261666666667 -0.004134375 0.12754
52 1 -0.034846875 -0.00261666666667 -0.002953125 0.179764
53 1 -0.034846875 -0.00261666666667 -0.001771875 0.140605
54 1 -0.034846875 -0.00261666666667 -0.000590625 0.188372
55 1 -0.034846875 -0.00261666666667 0.000590625 0.153616
56 1 -0.034846875 -0.00261666666667 0.001771875 0.194547
57 1 -0.034846875 -0.00261666666667 0.002953125 0.160475
58 1 -0.034846875 -0.00261666666667 0.004134375 0.190304
59 1 -0.034846875 -0.00261666666667 0.005315625 0.157739
60 1 -0.034846875 -0.00261666666667 0.006496875 0.175394
61 1 -0.034846875 -0.00261666666667 0.007678125 0.138087
62 1 -0.034846875 -0.00261666666667 0.008859375 0.146938
63 1 -0.034846875 -0.00261666666667 0.010040625 0.107871
64 1 -0.034846875 -0.00261666666667 0.011221875 0.116117
65 1 -0.034846875 -0.00125 -0.011221875 0.0873225
66 1 -0.034846875 -0.00125 -0.010040625 0.150849
67 1 -0.034846875 -0.00125 -0.008859375 0.104031
68 1 -0.034846875 -0.00125 -0.007678125 0.1638
69 1 -0.034846875 -0.00125 -0.006496875 0.116154
70 1 -0.034846875 -0.00125 -0.005315625 0.171726
71 1 -0.034846875 -0.00125 -0.004134375 0.12754
72 1 -0.034846875 -0.00125 -0.002953125 0.179764
73 1 -0.034846875 -0.00125 -0.001771875 0.140605
74 1 -0.034846875 -0.00125 -0.000590625 0.188372
75 1 -0.034846875 -0.00125 0.000590625 0.153616
76 1 -0.034846875 -0.00125 0.001771875 0.194547
77 1 -0.034846875 -0.00125 0.002953125 0.160475
78 1 -0.034846875 -0.00125 0.004134375 0.190304
79 1 -0.034846875 -0.00125 0.005315625 0.157739
80 1 -0.034846875 -0.00125 0.006496875 0.175394
81 1 -0.034846875 -0.00125 0.007678125 0.138087
82 1 -0.034846875 -0.00125 0.008859375 0.146938
83 1 -0.034846875 -0.00125 0.010040625 0.107871
84 1 -0.034846875 -0.00125 0.011221875 0.116117
85 1 -0.034846875 0.000116666666667 -0.011221875 0.0873225
86 1 -0.034846875 0.000116666666667 -0.010040625 0.150849
87 1 -0.034846875 0.000116666666667 -0.008859375 0.104031
88 1 -0.034846875 0.000116666666667 -0.007678125 0.1638
89 1 -0.034846875 0.000116666666667 -0.006496875 0.116154
90 1 -0.034846875 0.000116666666667 -0.005315625 0.171726
91 1 -0.034846875 0.000116666666667 -0.004134375 0.12754
92 1 -0.034846875 0.000116666666667 -0.002953125 0.179764
93 1 -0.034846875 0.000116666666667 -0.001771875 0.140605
94 1 -0.034846875 0.000116666666667 -0.000590625 0.188372
95 1 -0.034846875 0.000116666666667 0.000590625 0.153616
96 1 -0.034846875 0.000116666666667 0.001771875 0.194547
97 1 -0.034846875 0.000116666666667 0.002953125 0.160475
98 1 -0.034846875 0.000116666666667 0.004134375 0.190304
99 1 -0.034846875 0.000116666666667 0.005315625 0.157739
100 1 -0.034846875 0.000116666666667 0.006496875 0.175394
101 1 -0.034846875 0.000116666666667 0.007678125 0.138087
102 1 -0.034846875 0.000116666666667 0.008859375 0.146938
103 1 -0.034846875 0.000116666666667 0.010040625 0.107871
104 1 -0.034846875 0.000116666666667 0.011221875 0.116117
105 1 -0.033665625 -0.00261666666667 -0.013584375 0.163755
106 1 -0.033665625 -0.00261666666667 -0.012403125 0.317909
107 1 -0.033665625 -0.00261666666667 -0.011221875 0.223409
108 1 -0.033665625 -0.00261666666667 -0.010040625 0.361731
109 1 -0.033665625 -0.00261666666667 -0.008859375 0.269423
110 1 -0.033665625 -0.00261666666667 -0.007678125 0.387592
111 1 -0.033665625 -0.00261666666667 -0.006496875 0.301412
112 1 -0.033665625 -0.00261666666667 -0.005315625 0.403584
113 1 -0.033665625 -0.00261666666667 -0.004134375 0.323516
114 1 -0.033665625 -0.00261666666667 -0.002953125 0.416093
115 1 -0.033665625 -0.00261666666667 -0.001771875 0.345815
116 1 -0.033665625 -0.00261666666667 -0.000590625 0.431801
117 1 -0.033665625 -0.00261666666667 0.000590625 0.365441
118 1 -0.033665625 -0.00261666666667 0.001771875 0.443451
119 1 -0.033665625 -0.00261666666667 0.002953125 0.376656
120 1 -0.033665625 -0.00261666666667 0.004134375 0.443692
121 1 -0.033665625 -0.00261666666667 0.005315625 0.366714
122 1 -0.033665625 -0.00261666666667 0.006496875 0.424726
123 1 -0.033665625 -0.00261666666667 0.007678125 0.329014
124 1 -0.033665625 -0.00261666666667 0.008859375 0.377255
125 1 -0.033665625 -0.00261666666667 0.010040625 0.260715
126 1 -0.033665625 -0.00261666666667 0.011221875 0.3052
127 1 -0.033665625 -0.00261666666667 0.012403125 0.178971
128 1 -0.033665625 -0.00261666666667 0.013584375 0.224312
129 1 -0.033665625 -0.00125 -0.013584375 0.163755
130 1 -0.033665625 -0.00125 -0.012403125 0.317909
131 1 -0.033665625 -0.00125 -0.011221875 0.223409
132 1 -0.033665625 -0.00125 -0.010040625 0.361731
133 1 -0.033665625 -0.00125 -0.008859375 0.269423
134 1 -0.033665625 -0.00125 -0.007678125 0.387592
135 1 -0.033665625 -0.00125 -0.006496875 0.301412
136 1 -0.033665625 -0.00125 -0.005315625 0.403584
137 1 -0.033665625 -0.00125 -0.004134375 0.323516
138 1 -0.033665625 -0.00125 -0.002953125 0.416093
139 1 -0.033665625 -0.00125 -0.001771875 0.345815
140 1 -0.033665625 -0.00125 -0.000590625 0.431801
141 1 -0.033665625 -0.00125 0.000590625 0.365441
142 1 -0.033665625 -0.00125 0.001771875 0.443451
143 1 -0.033665625 -0.00125 0.002953125 0.376656
144 1 -0.033665625 -0.00125 0.004134375 0.443692
145 1 -0.033665625 -0.00125 0.005315625 0.366714
146 1 -0.033665625 -0.00125 0.006496875 0.424726
147 1 -0.033665625 -0.00125 0.007678125 0.329014
148 1 -0.033665625 -0.00125 0.008859375 0.377255
149 1 -0.033665625 -0.00125 0.010040625 0.260715
150 1 -0.033665625 -0.00125 0.011221875 0.3052
151 1 -0.033665625 -0.00125 0.012403125 0.178971
152 1 -0.033665625 -0.00125 0.013584375 0.224312
153 1 -0.033665625 0.000116666666667 -0.013584375 0.163755
154 1 -0.033665625 0.000116666666667 -0.012403125 0.317909
155 1 -0.033665625 0.000116666666667 -0.011221875 0.223409
156 1 -0.033665625 0.000116666666667 -0.010040625 0.361731
157 1 -0.033665625 0.000116666666667 -0.008859375 0.269423
158 1 -0.033665625 0.000116666666667 -0.007678125 0.387592
159 1 -0.033665625 0.000116666666667 -0.006496875 0.301412
160 1 -0.033665625 0.000116666666667 -0.005315625 0.403584
161 1 -0.033665625 0.000116666666667 -0.004134375 0.323516
162 1 -0.033665625 0.000116666666667 -0.002953125 0.416093
163 1 -0.033665625 0.000116666666667 -0.001771875 0.345815
164 1 -0.033665625 0.000116666666667 -0.000590625 0.431801
165 1 -0.033665625 0.000116666666667 0.000590625 0.365441
166 1 -0.033665625 0.000116666666667 0.001771875 0.443451
167 1 -0.033665625 0.000116666666667 0.002953125 0.376656
168 1 -0.033665625 0.000116666666667 0.004134375 0.443692
169 1 -0.033665625 0.000116666666667 0.005315625 0.366714
170 1 -0.033665625 0.000116666666667 0.006496875 0.424726
171 1 -0.033665625 0.000116666666667 0.007678125 0.329014
172 1 -0.033665625 0.000116666666667 0.008859375 0.377255
173 1 -0.033665625 0.000116666666667 0.010040625 0.260715
174 1 -0.033665625 0.000116666666667 0.011221875 0.3052
175 1 -0.033665625 0.000116666666667 0.012403125 0.178971
176 1 -0.033665625 0.000116666666667 0.013584375 0.224312
177 1 -0.032484375 -0.00261666666667 -0.018309375 0.113629
178 1 -0.032484375 -0.00261666666667 -0.017128125 0.176205
179 1 -0.032484375 -0.00261666666667 -0.015946875 0.207328
180 1 -0.032484375 -0.00261666666667 -0.014765625 0.250854
181 1 -0.032484375 -0.00261666666667 -0.013584375 0.319357
182 1 -0.032484375 -0.00261666666667 -0.012403125 0.32433
183 1 -0.032484375 -0.00261666666667 -0.011221875 0.413604
184 1 -0.032484375 -0.00261666666667 -0.010040625 0.36384
185 1 -0.032484375 -0.00261666666667 -0.008859375 0.472265
186 1 -0.032484375 -0.00261666666667 -0.007678125 0.384941
187 1 -0.032484375 -0.00261666666667 -0.006496875 0.504162
188 1 -0.032484375 -0.00261666666667 -0.005315625 0.392779
189 1 -0.032484375 -0.00261666666667 -0.004134375 0.52038
190 1 -0.032484375 -0.00261666666667 -0.002953125 0.397996
191 1 -0.032484375 -0.00261666666667 -0.001771875 0.534338
192 1 -0.032484375 -0.00261666666667 -0.000590625 0.407214
193 1 -0.032484375 -0.00261666666667 0.000590625 0.551522
194 1 -0.032484375 -0.00261666666667 0.001771875 0.416932
195 1 -0.032484375 -0.00261666666667 0.002953125 0.566382
196 1 -0.032484375 -0.00261666666667 0.004134375 0.414598
197 1 -0.032484375 -0.00261666666667 0.005315625 0.577734
198 1 -0.032484375 -0.00261666666667 0.006496875 0.401084
199 1 -0.032484375 -0.00261666666667 0.007678125 0.555654
200 1 -0.032484375 -0.00261666666667 0.008859375 0.353907
201 1 -0.032484375 -0.00261666666667 0.010040625 0.48039
202 1 -0.032484375 -0.00261666666667 0.011221875 0.2786
203 1 -0.032484375 -0.00261666666667 0.012403125 0.355451
204 1 -0.032484375 -0.00261666666667 0.013584375 0.186893
205 1 -0.032484375 -0.00261666666667 0.014765625 0.215308
206 1 -0.032484375 -0.00261666666667 0.015946875 0.114685
207 1 -0.032484375 -0.00261666666667 0.017128125 0.112591
208 1 -0.032484375 -0.00261666666667 0.018309375 0.0705537
209 1 -0.032484375 -0.00125 -0.018309375 0.113629
210 1 -0.032484375 -0.00125 -0.017128125 0.176205
211 1 -0.032484375 -0.00125 -0.015946875 0.207328
212 1 -0.032484375 -0.00125 -0.014765625 0.250854
213 1 -0.032484375 -0.00125 -0.013584375 0.319357
214 1 -0.032484375 -0.00125 -0.012403125 0.32433
215 1 -0.032484375 -0.00125 -0.011221875 0.413604
216 1 -0.032484375 -0.00125 -0.010040625 0.36384
217 1 -0.032484375 -0.00125 -0.008859375 0.472265
218 1 -0.032484375 -0.00125 -0.007678125 0.384941
219 1 -0.032484375 -0.00125 -0.006496875 0.504162
220 1 -0.032484375 -0.00125 -0.005315625 0.392779
221 1 -0.032484375 -0.00125 -0.004134375 0.52038
222 1 -0.032484375 -0.00125 -0.002953125 0.397996
223 1 -0.032484375 -0.00125 -0.001771875 0.534338
224 1 -0.032484375 -0.00125 -0.000590625 0.407214
225 1 -0.032484375 -0.00125 0.000590625 0.551522
226 1 -0.032484375 -0.00125 0.001771875 0.416932
227 1 -0.032484375 -0.00125 0.002953125 0.566382
228 1 -0.032484375 -0.00125 0.004134375 0.414598
229 1 -0.032484375 -0.00125 0.005315625 0.577734
230 1 -0.032484375 -0.00125 0.006496875 0.401084
231 1 -0.032484375 -0.00125 0.007678125 0.555654
232 1 -0.032484375 -0.00125 0.008859375 0.353907
233 1 -0.032484375 -0.00125 0.010040625 0.48039
234 1 -0.032484375 -0.00125 0.011221875 0.2786
235 1 -0.032484375 -0.00125 0.012403125 0.355451
236 1 -0.032484375 -0.00125 0.013584375 0.186893
237 1 -0.032484375 -0.00125 0.014765625 0.215308
238 1 -0.032484375 -0.00125 0.015946875 0.114685
239 1 -0.032484375 -0.00125 0.017128125 0.112591
240 1 -0.032484375 -0.00125 0.018309375 0.0705537
241 1 -0.032484375 0.000116666666667 -0.018309375 0.113629
242 1 -0.032484375 0.000116666666667 -0.017128125 0.176205
243 1 -0.032484375 0.000116666666667 -0.015946875 0.207328
244 1 -0.032484375 0.000116666666667 -0.014765625 0.250854
245 1 -0.032484375 0.000116666666667 -0.013584375 0.319357
246 1 -0.032484375 0.000116666666667 -0.012403125 0.32433
247 1 -0.032484375 0.000116666666667 -0.011221875 0.413604
248 1 -0.032484375 0.000116666666667 -0.010040625 0.36384
249 1 -0.032484375 0.000116666666667 -0.008859375 0.472265
250 1 -0.032484375 0.000116666666667 -0.007678125 0.384941
251 1 -0.032484375 0.000116666666667 -0.006496875 0.504162
252 1 -0.032484375 0.000116666666667 -0.005315625 0.392779
253 1 -0.032484375 0.000116666666667 -0.004134375 0.52038
254 1 -0.032484375 0.000116666666667 -0.002953125 0.397996
255 1 -0.032484375 0.000116666666667 -0.001771875 0.534338
256 1 -0.032484375 0.000116666666667 -0.000590625 0.407214
257 1 -0.032484375 0.000116666666667 0.000590625 0.551522
258 1 -0.032484375 0.000116666666667 0.001771875 0.416932
259 1 -0.032484375 0.000116666666667 0.002953125 0.566382
260 1 -0.032484375 0.000116666666667 0.004134375 0.414598
261 1 -0.032484375 0.000116666666667 0.005315625 0.577734
262 1 -0.032484375 0.000116666666667 0.006496875 0.401084
263 1 -0.032484375 0.000116666666667 0.007678125 0.555654
264 1 -0.032484375 0.000116666666667 0.008859375 0.353907
265 1 -0.032484375 0.000116666666667 0.010040625 0.48039
266 1 -0.032484375 0.000116666666667 0.011221875 0.2786
267 1 -0.032484375 0.000116666666667 0.012403125 0.355451
268 1 -0.032484375 0.000116666666667 0.013584375 0.186893
269 1 -0.032484375 0.000116666666667 0.014765625 0.215308
270 1 -0.032484375 0.000116666666667 0.015946875 0.114685
271 1 -0.032484375 0.000116666666667 0.017128125 0.112591
272 1 -0.032484375 0.000116666666667 0.018309375 0.0705537
273 1 -0.031303125 -0.00261666666667 -0.019490625 0.28491
274 1 -0.031303125 -0.00261666666667 -0.018309375 0.245222
275 1 -0.031303125 -0.00261666666667 -0.017128125 0.404074
276 1 -0.031303125 -0.00261666666667 -0.015946875 0.407306
277 1 -0.031303125 -0.00261666666667 -0.014765625 0.509978
278 1 -0.031303125 -0.00261666666667 -0.013584375 0.545415
279 1 -0.031303125 -0.00261666666667 -0.012403125 0.578871
280 1 -0.031303125 -0.00261666666667 -0.011221875 0.631093
281 1 -0.031303125 -0.00261666666667 -0.010040625 0.613124
282 1 -0.031303125 -0.00261666666667 -0.008859375 0.670049
283 1 -0.031303125 -0.00261666666667 -0.007678125 0.622955
284 1 -0.031303125 -0.00261666666667 -0.006496875 0.681365
285 1 -0.031303125 -0.00261666666667 -0.005315625 0.62511
286 1 -0.031303125 -0.00261666666667 -0.004134375 0.679175
287 1 -0.031303125 -0.00261666666667 -0.002953125 0.623862
288 1 -0.031303125 -0.00261666666667 -0.001771875 0.679052
289 1 -0.031303125 -0.00261666666667 -0.000590625 0.62997
290 1 -0.031303125 -0.00261666666667 0.000590625 0.684859
291 1 -0.031303125 -0.00261666666667 0.001771875 0.63788
292 1 -0.031303125 -0.00261666666667 0.002953125 0.696535
293 1 -0.031303125 -0.00261666666667 0.004134375 0.644794
294 1 -0.031303125 -0.00261666666667 0.005315625 0.706115
295 1 -0.031303125 -0.00261666666667 0.006496875 0.643512
296 1 -0.031303125 -0.00261666666667 0.007678125 0.702569
297 1 -0.031303125 -0.00261666666667 0.008859375 0.62322
298 1 -0.031303125 -0.00261666666667 0.010040625 0.661772
299 1 -0.031303125 -0.00261666666667 0.011221875 0.560228
300 1 -0.031303125 -0.00261666666667 0.012403125 0.561067
301 1 -0.031303125 -0.00261666666667 0.013584375 0.457831
302 1 -0.031303125 -0.00261666666667 0.014765625 0.400158
303 1 -0.031303125 -0.00261666666667 0.015946875 0.326582
304 1 -0.031303125 -0.00261666666667 0.017128125 0.237577
305 1 -0.031303125 -0.00261666666667 0.018309375 0.214989
306 1 -0.031303125 -0.00261666666667 0.019490625 0.129459
307 1 -0.031303125 -0.00125 -0.019490625 0.28491
308 1 -0.031303125 -0.00125 -0.018309375 0.245222
309 1 -0.031303125 -0.00125 -0.017128125 0.404074
310 1 -0.031303125 -0.00125 -0.015946875 0.407306
311 1 -0.031303125 -0.00125 -0.014765625 0.509978
312 1 -0.031303125 -0.00125 -0.013584375 0.545415
313 1 -0.031303125 -0.00125 -0.012403125 0.578871
314 1 -0.031303125 -0.00125 -0.011221875 0.631093
315 1 -0.031303125 -0.00125 -0.010040625 0.613124
316 1 -0.031303125 -0.00125 -0.008859375 0.670049
317 1 -0.031303125 -0.00125 -0.007678125 0.622955
318 1 -0.031303125 -0.00125 -0.006496875 0.681365
319 1 -0.031303125 -0.00125 -0.005315625 0.62511
320 1 -0.031303125 -0.00125 -0.004134375 0.679175
321 1 -0.031303125 -0.00125 -0.002953125 0.623862
322 1 -0.031303125 -0.00125 -0.001771875 0.679052
323 1 -0.031303125 -0.00125 -0.000590625 0.62997
324 1 -0.031303125 -0.00125 0.000590625 0.684859
325 1 -0.031303125 -0.00125 0.001771875 0.63788
326 1 -0.031303125 -0.00125 0.002953125 0.696535
327 1 -0.031303125 -0.00125 0.004134375 0.644794
328 1 -0.031303125 -0.00125 0.005315625 0.706115
329 1 -0.031303125 -0.00125 0.006496875 0.643512
330 1 -0.031303125 -0.00125 0.007678125 0.702569
331 1 -0.031303125 -0.00125 0.008859375 0.62322
332 1 -0.031303125 -0.00125 0.010040625 0.661772
333 1 -0.031303125 -0.00125 0.011221875 0.560228
334 1 -0.031303125 -0.00125 0.012403125 0.561067
335 1 -0.031303125 -0.00125 0.013584375 0.457831
336 1 -0.031303125 -0.00125 0.014765625 0.400158
337 1 -0.031303125 -0.00125 0.015946875 0.326582
338 1 -0.031303125 -0.00125 0.017128125 0.237577
339 1 -0.031303125 -0.00125 0.018309375 0.214989
340 1 -0.031303125 -0.00125 0.019490625 0.129459
341 1 -0.031303125 0.000116666666667 -0.019490625 0.28491
342 1 -0.031303125 0.000116666666667 -0.018309375 0.245222
343 1 -0.031303125 0.000116666666667 -0.017128125 0.404074
344 1 -0.031303125 0.000116666666667 -0.015946875 0.407306
345 1 -0.031303125 0.000116666666667 -0.014765625 0.509978
346 1 -0.031303125 0.000116666666667 -0.013584375 0.545415
347 1 -0.031303125 0.000116666666667 -0.012403125 0.578871
348 1 -0.031303125 0.000116666666667 -0.011221875 0.631093
349 1 -0.031303125 0.000116666666667 -0.010040625 0.613124
350 1 -0.031303125 0.000116666666667 -0.008859375 0.670049
351 1 -0.031303125 0.000116666666667 -0.007678125 0.622955
352 1 -0.031303125 0.000116666666667 -0.006496875 0.681365
353 1 -0.031303125 0.000116666666667 -0.005315625 0.62511
354 1 -0.031303125 0.000116666666667 -0.004134375 0.679175
355 1 -0.031303125 0.000116666666667 -0.002953125 0.623862
356 1 -0.031303125 0.000116666666667 -0.001771875 0.679052
357 1 -0.031303125 0.000116666666667 -0.000590625 0.62997
358 1 -0.031303125 0.000116666666667 0.000590625 0.684859
359 1 -0.031303125 0.000116666666667 0.001771875 0.63788
360 1 -0.031303125 0.000116666666667 0.002953125 0.696535
361 1 -0.031303125 0.000116666666667 0.004134375 0.644794
362 1 -0.031303125 0.000116666666667 0.005315625 0.706115
363 1 -0.031303125 0.000116666666667 0.006496875 0.643512
364 1 -0.031303125 0.000116666666667 0.007678125 0.702569
365 1 -0.031303125 0.000116666666667 0.008859375 0.62322
366 1 -0.031303125 0.000116666666667 0.010040625 0.661772
367 1 -0.031303125 0.000116666666667 0.011221875 0.560228
368 1 -0.031303125 0.000116666666667 0.012403125 0.561067
369 1 -0.031303125 0.000116666666667 0.013584375 0.457831
370 1 -0.031303125 0.000116666666667 0.014765625 0.400158
371 1 -0.031303125 0.000116666666667 0.015946875 0.326582
372 1 -0.031303125 0.000116666666667 0.017128125 0.237577
373 1 -0.031303125 0.000116666666667 0.018309375 0.214989
374 1 -0.031303125 0.000116666666667 0.019490625 0.129459
375 1 -0.030121875 -0.00261666666667 -0.020671875 0.193668
376 1 -0.030121875 -0.00261666666667 -0.019490625 0.275156
377 1 -0.030121875 -0.00261666666667 -0.018309375 0.36241
378 1 -0.030121875 -0.00261666666667 -0.017128125 0.419593
379 1 -0.030121875 -0.00261666666667 -0.015946875 0.521326
380 1 -0.030121875 -0.00261666666667 -0.014765625 0.511095
381 1 -0.030121875 -0.00261666666667 -0.013584375 0.628536
382 1 -0.030121875 -0.00261666666667 -0.012403125 0.568041
383 1 -0.030121875 -0.00261666666667 -0.011221875 0.679093
384 1 -0.030121875 -0.00261666666667 -0.010040625 0.587692
385 1 -0.030121875 -0.00261666666667 -0.008859375 0.694031
386 1 -0.030121875 -0.00261666666667 -0.007678125 0.592792
387 1 -0.030121875 -0.00261666666667 -0.006496875 0.689151
388 1 -0.030121875 -0.00261666666667 -0.005315625 0.589625
389 1 -0.030121875 -0.00261666666667 -0.004134375 0.679332
390 1 -0.030121875 -0.00261666666667 -0.002953125 0.583585
391 1 -0.030121875 -0.00261666666667 -0.001771875 0.675588
392 1 -0.030121875 -0.00261666666667 -0.000590625 0.586956
393 1 -0.030121875 -0.00261666666667 0.000590625 0.682955
394 1 -0.030121875 -0.00261666666667 0.001771875 0.596744
395 1 -0.030121875 -0.00261666666667 0.002953125 0.698857
396 1 -0.030121875 -0.00261666666667 0.004134375 0.601753
397 1 -0.030121875 -0.00261666666667 0.005315625 0.724175
398 1 -0.030121875 -0.00261666666667 0.006496875 0.603773
399 1 -0.030121875 -0.00261666666667 0.007678125 0.736595
400 1 -0.030121875 -0.00261666666667 0.008859375 0.579548
401 1 -0.030121875 -0.00261666666667 0.010040625 0.725651
402 1 -0.030121875 -0.00261666666667 0.011221875 0.525136
403 1 -0.030121875 -0.00261666666667 0.012403125 0.675685
404 1 -0.030121875 -0.00261666666667 0.013584375 0.4282
405 1 -0.030121875 -0.00261666666667 0.014765625 0.551154
406 1 -0.030121875 -0.00261666666667 0.015946875 0.296874
407 1 -0.030121875 -0.00261666666667 0.017128125 0.355772
408 1 -0.030121875 -0.00261666666667 0.018309375 0.180625
409 1 -0.030121875 -0.00261666666667 0.019490625 0.194781
410 1 -0.030121875 -0.00261666666667 0.020671875 0.111518
411 1 -0.030121875 -0.00125 -0.020671875 0.193668
412 1 -0.030121875 -0.00125 -0.019490625 0.275156
413 1 -0.030121875 -0.00125 -0.018309375 0.36241
414 1 -0.030121875 -0.00125 -0.017128125 0.419593
415 1 -0.030121875 -0.00125 -0.015946875 0.521326
416 1 -0.030121875 -0.00125 -0.014765625 0.511095
417 1 -0.030121875 -0.00125 -0.013584375 0.628536
418 1 -0.030121875 -0.00125 -0.012403125 0.568041
419 1 -0.030121875 -0.00125 -0.011221875 0.679093
420 1 -0.030121875 -0.00125 -0.010040625 0.587692
421 1 -0.030121875 -0.00125 -0.008859375 0.694031
422 1 -0.030121875 -0.00125 -0.007678125 0.592792
423 1 -0.030121875 -0.00125 -0.006496875 0.689151
424 1 -0.030121875 -0.00125 -0.005315625 0.589625
425 1 -0.030121875 -0.00125 -0.004134375 0.679332
426 1 -0.030121875 -0.00125 -0.002953125 0.583585
427 1 -0.030121875 -0.00125 -0.001771875 0.675588
428 1 -0.030121875 -0.00125 -0.000590625 0.586956
429 1 -0.030121875 -0.00125 0.000590625 0.682955
430 1 -0.030121875 -0.00125 0.001771875 0.596744
431 1 -0.030121875 -0.00125 0.002953125 0.698857
432 1 -0.030121875 -0.00125 0.004134375 0.601753
433 1 -0.030121875 -0.00125 0.005315625 0.724175
434 1 -0.030121875 -0.00125 0.006496875 0.603773
435 1 -0.030121875 -0.00125 0.007678125 0.736595
436 1 -0.030121875 -0.00125 0.008859375 0.579548
437 1 -0.030121875 -0.00125 0.010040625 0.725651
438 1 -0.030121875 -0.00125 0.011221875 0.525136
439 1 -0.030121875 -0.00125 0.012403125 0.675685
440 1 -0.030121875 -0.00125 0.013584375 0.4282
441 1 -0.030121875 -0.00125 0.014765625 0.551154
442 1 -0.030121875 -0.00125 0.015946875 0.296874
443 1 -0.030121875 -0.00125 0.017128125 0.355772
444 1 -0.030121875 -0.00125 0.018309375 0.180625
445 1 -0.030121875 -0.00125 0.019490625 0.194781
446 1 -0.030121875 -0.00125 0.020671875 0.111518
447 1 -0.030121875 0.000116666666667 -0.020671875 0.193668
448 1 -0.030121875 0.000116666666667 -0.019490625 0.275156
449 1 -0.030121875 0.000116666666667 -0.018309375 0.36241
450 1 -0.030121875 0.000116666666667 -0.017128125 0.419593
451 1 -0.030121875 0.000116666666667 -0.015946875 0.521326
452 1 -0.030121875 0.000116666666667 -0.014765625 0.511095
453 1 -0.030121875 0.000116666666667 -0.013584375 0.628536
454 1 -0.030121875 0.000116666666667 -0.012403125 0.568041
455 1 -0.030121875 0.000116666666667 -0.011221875 0.679093
456 1 -0.030121875 0.000116666666667 -0.010040625 0.587692
457 1 -0.030121875 0.000116666666667 -0.008859375 0.694031
458 1 -0.030121875 0.000116666666667 -0.007678125 0.592792
459 1 -0.030121875 0.000116666666667 -0.006496875 0.689151
460 1 -0.030121875 0.000116666666667 -0.005315625 0.589625
461 1 -0.030121875 0.000116666666667 -0.004134375 0.679332
462 1 -0.030121875 0.000116666666667 -0.002953125 0.583585
463 1 -0.030121875 0.000116666666667 -0.001771875 0.675588
464 1 -0.030121875 0.000116666666667 -0.000590625 0.586956
465 1 -0.030121875 0.000116666666667 0.000590625 0.682955
466 1 -0.030121875 0.000116666666667 0.001771875 0.596744
467 1 -0.030121875 0.000116666666667 0.002953125 0.698857
468 1 -0.030121875 0.000116666666667 0.004134375 0.601753
469 1 -0.030121875 0.000116666666667 0.005315625 0.724175
470 1 -0.030121875 0.000116666666667 0.006496875 0.603773
471 1 -0.030121875 0.000116666666667 0.007678125 0.736595
472 1 -0.030121875 0.000116666666667 0.008859375 0.579548
473 1 -0.030121875 0.000116666666667 0.010040625 0.725651
474 1 -0.030121875 0.000116666666667 0.011221875 0.525136
475 1 -0.030121875 0.000116666666667 0.012403125 0.675685
476 1 -0.030121875 0.000116666666667 0.013584375 0.4282
477 1 -0.030121875 0.000116666666667 0.014765625 0.551154
478 1 -0.030121875 0.000116666666667 0.015946875 0.296874
479 1 -0.030121875 0.000116666666667 0.017128125 0.355772
480 1 -0.030121875 0.000116666666667 0.018309375 0.180625
481 1 -0.030121875 0.000116666666667 0.019490625 0.194781
482 1 -0.030121875 0.000116666666667 0.020671875 0.111518
483 1 -0.028940625 -0.00261666666667 -0.021853125 0.314298
484 1 -0.028940625 -0.00261666666667 -0.020671875 0.293909
485 1 -0.028940625 -0.00261666666667 -0.019490625 0.461858
486 1 -0.028940625 -0.00261666666667 -0.018309375 0.492839
487 1 -0.028940625 -0.00261666666667 -0.017128125 0.578669
488 1 -0.028940625 -0.00261666666667 -0.015946875 0.63072
489 1 -0.028940625 -0.00261666666667 -0.014765625 0.629123
490 1 -0.028940625 -0.00261666666667 -0.013584375 0.673227
491 1 -0.028940625 -0.00261666666667 -0.012403125 0.646571
492 1 -0.028940625 -0.00261666666667 -0.011221875 0.685108
493 1 -0.028940625 -0.00261666666667 -0.010040625 0.651508
494 1 -0.028940625 -0.00261666666667 -0.008859375 0.683485
495 1 -0.028940625 -0.00261666666667 -0.007678125 0.647104
496 1 -0.028940625 -0.00261666666667 -0.006496875 0.677552
497 1 -0.028940625 -0.00261666666667 -0.005315625 0.643255
498 1 -0.028940625 -0.00261666666667 -0.004134375 0.669515
499 1 -0.028940625 -0.00261666666667 -0.002953125 0.640022
500 1 -0.028940625 -0.00261666666667 -0.001771875 0.668142
501 1 -0.028940625 -0.00261666666667 -0.000590625 0.646506
502 1 -0.028940625 -0.00261666666667 0.000590625 0.675308
503 1 -0.028940625 -0.00261666666667 0.001771875 0.656103
504 1 -0.028940625 -0.00261666666667 0.002953125 0.689361
505 1 -0.028940625 -0.00261666666667 0.004134375 0.665804
506 1 -0.028940625 -0.00261666666667 0.005315625 0.702471
507 1 -0.028940625 -0.00261666666667 0.006496875 0.668998
508 1 -0.028940625 -0.00261666666667 0.007678125 0.710981
509 1 -0.028940625 -0.00261666666667 0.008859375 0.661075
510 1 -0.028940625 -0.00261666666667 0.010040625 0.710186
511 1 -0.028940625 -0.00261666666667 0.011221875 0.637488
512 1 -0.028940625 -0.00261666666667 0.012403125 0.697951
513 1 -0.028940625 -0.00261666666667 0.013584375 0.592829
514 1 -0.028940625 -0.00261666666667 0.014765625 0.631051
515 1 -0.028940625 -0.00261666666667 0.015946875 0.497296
516 1 -0.028940625 -0.00261666666667 0.017128125 0.485739
517 1 -0.028940625 -0.00261666666667 0.018309375 0.364711
518 1 -0.028940625 -0.00261666666667 0.019490625 0.312313
519 1 -0.028940625 -0.00261666666667 0.020671875 0.253447
520 1 -0.028940625 -0.00261666666667 0.021853125 0.189699
521 1 -0.028940625 -0.00125 -0.021853125 0.314298
522 1 -0.028940625 -0.00125 -0.020671875 0.293909
523 1 -0.028940625 -0.00125 -0.019490625 0.461858
524 1 -0.028940625 -0.00125 -0.018309375 0.492839
525 1 -0.028940625 -0.00125 -0.017128125 0.578669
526 1 -0.028940625 -0.00125 -0.015946875 0.63072
527 1 -0.028940625 -0.00125 -0.014765625 0.629123
528 1 -0.028940625 -0.00125 -0.013584375 0.673227
529 1 -0.028940625 -0.00125 -0.012403125 0.646571
530 1 -0.028940625 -0.00125 -0.011221875 0.685108
531 1 -0.028940625 -0.00125 -0.010040625 0.651508
532 1 -0.028940625 -0.00125 -0.008859375 0.683485
533 1 -0.028940625 -0.00125 -0.007678125 0.647104
534 1 -0.028940625 -0.00125 -0.006496875 0.677552
535 1 -0.028940625 -0.00125 -0.005315625 0.643255
536 1 -0.028940625 -0.00125 -0.004134375 0.669515
537 1 -0.028940625 -0.00125 -0.002953125 0.640022