ITEM: TIMESTEP
0
ITEM: NUMBER OF ATOMS
9240
ITEM: BOX BOUNDS ss ss ss
-3.7007399999999996e-02 3.7007399999999996e-02
-2.0002499999999999e-03 2.5000000000000004e-07
-3.7007399999999996e-02 3.7007399999999996e-02
ITEM: ATOMS id type x y z c_1
0 1 -0.037209375 -0.00261666666667 -0.000590625 0.255179
1 1 -0.037209375 -0.00125 -0.000590625 0.255179
2 1 -0.037209375 0.000116666666667 -0.000590625 0.255179
3 1 -0.036028125 -0.00261666666667 -0.007678125 0.17898
4 1 -0.036028125 -0.00261666666667 -0.006496875 0.0731986
5 1 -0.036028125 -0.00261666666667 -0.005315625 0.191355
6 1 -0.036028125 -0.00261666666667 -0.004134375 0.0826339
7 1 -0.036028125 -0.00261666666667 -0.002953125 0.202244
8 1 -0.036028125 -0.00261666666667 -0.001771875 0.092307
9 1 -0.036028125 -0.00261666666667 -0.000590625 0.21386
10 1 -0.036028125 -0.00261666666667 0.000590625 0.100696
11 1 -0.036028125 -0.00261666666667 0.001771875 0.222139
12 1 -0.036028125 -0.00261666666667 0.002953125 0.104593
13 1 -0.036028125 -0.00261666666667 0.004134375 0.220846
14 1 -0.036028125 -0.00261666666667 0.005315625 0.0995903
15 1 -0.036028125 -0.00261666666667 0.006496875 0.207193
16 1 -0.036028125 -0.00261666666667 0.007678125 0.0870269
17 1 -0.036028125 -0.00125 -0.007678125 0.17898
18 1 -0.036028125 -0.00125 -0.006496875 0.0731986
19 1 -0.036028125 -0.00125 -0.005315625 0.191355
20 1 -0.036028125 -0.00125 -0.004134375 0.0826339
21 1 -0.036028125 -0.00125 -0.002953125 0.202244
22 1 -0.036028125 -0.00125 -0.001771875 0.092307
23 1 -0.036028125 -0.00125 -0.000590625 0.21386
24 1 -0.036028125 -0.00125 0.000590625 0.100696
25 1 -0.036028125 -0.00125 0.001771875 0.222139
26 1 -0.036028125 -0.00125 0.002953125 0.104593
27 1 -0.036028125 -0.00125 0.004134375 0.220846
28 1 -0.036028125 -0.00125 0.005315625 0.0995903
29 1 -0.036028125 -0.00125 0.006496875 0.207193
30 1 -0.036028125 -0.00125 0.007678125 0.0870269
31 1 -0.036028125 0.000116666666667 -0.007678125 0.17898
32 1 -0.036028125 0.000116666666667 -0.006496875 0.0731986
33 1 -0.036028125 0.000116666666667 -0.005315625 0.191355
34 1 -0.036028125 0.000116666666667 -0.004134375 0.0826339
35 1 -0.036028125 0.000116666666667 -0.002953125 0.202244
36 1 -0.036028125 0.000116666666667 -0.001771875 0.092307
37 1 -0.036028125 0.000116666666667 -0.000590625 0.21386
38 1 -0.036028125 0.000116666666667 0.000590625 0.100696
39 1 -0.036028125 0.000116666666667 0.001771875 0.222139
40 1 -0.036028125 0.000116666666667 0.002953125 0.104593
41 1 -0.036028125 0.000116666666667 0.004134375 0.220846
42 1 -0.036028125 0.000116666666667 0.005315625 0.0995903
43 1 -0.036028125 0.000116666666667 0.006496875 0.207193
44 1 -0.036028125 0.000116666666667 0.007678125 0.0870269
45 1 -0.034846875 -0.00261666666667 -0.011221875 0.0583444
46 1 -0.034846875 -0.00261666666667 -0.010040625 0.109683
47 1 -0.034846875 -0.00261666666667 -0.008859375 0.0739118
48 1 -0.034846875 -0.00261666666667 -0.007678125 0.124602
49 1 -0.034846875 -0.00261666666667 -0.006496875 0.0878082
50 1 -0.034846875 -0.00261666666667 -0.005315625 0.136268
51 1 -0.034846875 -0.00261666666667 -0.004134375 0.100513
52 1 -0.034846875 -0.00261666666667 -0.002953125 0.147096
53 1 -0.034846875 -0.00261666666667 -0.001771875 0.113245
54 1 -0.034846875 -0.00261666666667 -0.000590625 0.157024
55 1 -0.034846875 -0.00261666666667 0.000590625 0.124411
56 1 -0.034846875 -0.00261666666667 0.001771875 0.163838
57 1 -0.034846875 -0.00261666666667 0.002953125 0.129611
58 1 -0.034846875 -0.00261666666667 0.004134375 0.159436
59 1 -0.034846875 -0.00261666666667 0.005315625 0.124606
60 1 -0.034846875 -0.00261666666667 0.006496875 0.144973
61 1 -0.034846875 -0.00261666666667 0.007678125 0.106699
62 1 -0.034846875 -0.00261666666667 0.008859375 0.119981
63 1 -0.034846875 -0.00261666666667 0.010040625 0.0825346
64 1 -0.034846875 -0.00261666666667 0.011221875 0.0947956
65 1 -0.034846875 -0.00125 -0.011221875 0.0583444
66 1 -0.034846875 -0.00125 -0.010040625 0.109683
67 1 -0.034846875 -0.00125 -0.008859375 0.0739118
68 1 -0.034846875 -0.00125 -0.007678125 0.124602
69 1 -0.034846875 -0.00125 -0.006496875 0.0878082
70 1 -0.034846875 -0.00125 -0.005315625 0.136268
71 1 -0.034846875 -0.00125 -0.004134375 0.100513
72 1 -0.034846875 -0.00125 -0.002953125 0.147096
73 1 -0.034846875 -0.00125 -0.001771875 0.113245
74 1 -0.034846875 -0.00125 -0.000590625 0.157024
75 1 -0.034846875 -0.00125 0.000590625 0.124411
76 1 -0.034846875 -0.00125 0.001771875 0.163838
77 1 -0.034846875 -0.00125 0.002953125 0.129611
78 1 -0.034846875 -0.00125 0.004134375 0.159436
79 1 -0.034846875 -0.00125 0.005315625 0.124606
80 1 -0.034846875 -0.00125 0.006496875 0.144973
81 1 -0.034846875 -0.00125 0.007678125 0.106699
82 1 -0.034846875 -0.00125 0.008859375 0.119981
83 1 -0.034846875 -0.00125 0.010040625 0.0825346
84 1 -0.034846875 -0.00125 0.011221875 0.0947956
85 1 -0.034846875 0.000116666666667 -0.011221875 0.0583444
86 1 -0.034846875 0.000116666666667 -0.010040625 0.109683
87 1 -0.034846875 0.000116666666667 -0.008859375 0.0739118
88 1 -0.034846875 0.000116666666667 -0.007678125 0.124602
89 1 -0.034846875 0.000116666666667 -0.006496875 0.0878082
90 1 -0.034846875 0.000116666666667 -0.005315625 0.136268
91 1 -0.034846875 0.000116666666667 -0.004134375 0.100513
92 1 -0.034846875 0.000116666666667 -0.002953125 0.147096
93 1 -0.034846875 0.000116666666667 -0.001771875 0.113245
94 1 -0.034846875 0.000116666666667 -0.000590625 0.157024
95 1 -0.034846875 0.000116666666667 0.000590625 0.124411
96 1 -0.034846875 0.000116666666667 0.001771875 0.163838
97 1 -0.034846875 0.000116666666667 0.002953125 0.129611
98 1 -0.034846875 0.000116666666667 0.004134375 0.159436
99 1 -0.034846875 0.000116666666667 0.005315625 0.124606
100 1 -0.034846875 0.000116666666667 0.006496875 0.144973
101 1 -0.034846875 0.000116666666667 0.007678125 0.106699
102 1 -0.034846875 0.000116666666667 0.008859375 0.119981
103 1 -0.034846875 0.000116666666667 0.010040625 0.0825346
104 1 -0.034846875 0.000116666666667 0.011221875 0.0947956
105 1 -0.033665625 -0.00261666666667 -0.013584375 0.105713
106 1 -0.033665625 -0.00261666666667 -0.012403125 0.250225
107 1 -0.033665625 -0.00261666666667 -0.011221875 0.152606
108 1 -0.033665625 -0.00261666666667 -0.010040625 0.293279
109 1 -0.033665625 -0.00261666666667 -0.008859375 0.19642
110 1 -0.033665625 -0.00261666666667 -0.007678125 0.324096
111 1 -0.033665625 -0.00261666666667 -0.006496875 0.233602
112 1 -0.033665625 -0.00261666666667 -0.005315625 0.347915
113 1 -0.033665625 -0.00261666666667 -0.004134375 0.262642
114 1 -0.033665625 -0.00261666666667 -0.002953125 0.365539
115 1 -0.033665625 -0.00261666666667 -0.001771875 0.287892
116 1 -0.033665625 -0.00261666666667 -0.000590625 0.382966
117 1 -0.033665625 -0.00261666666667 0.000590625 0.307748
118 1 -0.033665625 -0.00261666666667 0.001771875 0.393945
119 1 -0.033665625 -0.00261666666667 0.002953125 0.315354
120 1 -0.033665625 -0.00261666666667 0.004134375 0.390011
121 1 -0.033665625 -0.00261666666667 0.005315625 0.299469
122 1 -0.033665625 -0.00261666666667 0.006496875 0.366227
123 1 -0.033665625 -0.00261666666667 0.007678125 0.255878
124 1 -0.033665625 -0.00261666666667 0.008859375 0.317645
125 1 -0.033665625 -0.00261666666667 0.010040625 0.192973
126 1 -0.033665625 -0.00261666666667 0.011221875 0.253312
127 1 -0.033665625 -0.00261666666667 0.012403125 0.128369
128 1 -0.033665625 -0.00261666666667 0.013584375 0.188363
129 1 -0.033665625 -0.00125 -0.013584375 0.105713
130 1 -0.033665625 -0.00125 -0.012403125 0.250225
131 1 -0.033665625 -0.00125 -0.011221875 0.152606
132 1 -0.033665625 -0.00125 -0.010040625 0.293279
133 1 -0.033665625 -0.00125 -0.008859375 0.19642
134 1 -0.033665625 -0.00125 -0.007678125 0.324096
135 1 -0.033665625 -0.00125 -0.006496875 0.233602
136 1 -0.033665625 -0.00125 -0.005315625 0.347915
137 1 -0.033665625 -0.00125 -0.004134375 0.262642
138 1 -0.033665625 -0.00125 -0.002953125 0.365539
139 1 -0.033665625 -0.00125 -0.001771875 0.287892
140 1 -0.033665625 -0.00125 -0.000590625 0.382966
141 1 -0.033665625 -0.00125 0.000590625 0.307748
142 1 -0.033665625 -0.00125 0.001771875 0.393945
143 1 -0.033665625 -0.00125 0.002953125 0.315354
144 1 -0.033665625 -0.00125 0.004134375 0.390011
145 1 -0.033665625 -0.00125 0.005315625 0.299469
146 1 -0.033665625 -0.00125 0.006496875 0.366227
147 1 -0.033665625 -0.00125 0.007678125 0.255878
148 1 -0.033665625 -0.00125 0.008859375 0.317645
149 1 -0.033665625 -0.00125 0.010040625 0.192973
150 1 -0.033665625 -0.00125 0.011221875 0.253312
151 1 -0.033665625 -0.00125 0.012403125 0.128369
152 1 -0.033665625 -0.00125 0.013584375 0.188363
153 1 -0.033665625 0.000116666666667 -0.013584375 0.105713
154 1 -0.033665625 0.000116666666667 -0.012403125 0.250225
155 1 -0.033665625 0.000116666666667 -0.011221875 0.152606
156 1 -0.033665625 0.000116666666667 -0.010040625 0.293279
157 1 -0.033665625 0.000116666666667 -0.008859375 0.19642
158 1 -0.033665625 0.000116666666667 -0.007678125 0.324096
159 1 -0.033665625 0.000116666666667 -0.006496875 0.233602
160 1 -0.033665625 0.000116666666667 -0.005315625 0.347915
161 1 -0.033665625 0.000116666666667 -0.004134375 0.262642
162 1 -0.033665625 0.000116666666667 -0.002953125 0.365539
163 1 -0.033665625 0.000116666666667 -0.001771875 0.287892
164 1 -0.033665625 0.000116666666667 -0.000590625 0.382966
165 1 -0.033665625 0.000116666666667 0.000590625 0.307748
166 1 -0.033665625 0.000116666666667 0.001771875 0.393945
167 1 -0.033665625 0.000116666666667 0.002953125 0.315354
168 1 -0.033665625 0.000116666666667 0.004134375 0.390011
169 1 -0.033665625 0.000116666666667 0.005315625 0.299469
170 1 -0.033665625 0.000116666666667 0.006496875 0.366227
171 1 -0.033665625 0.000116666666667 0.007678125 0.255878
172 1 -0.033665625 0.000116666666667 0.008859375 0.317645
173 1 -0.033665625 0.000116666666667 0.010040625 0.192973
174 1 -0.033665625 0.000116666666667 0.011221875 0.253312
175 1 -0.033665625 0.000116666666667 0.012403125 0.128369
176 1 -0.033665625 0.000116666666667 0.013584375 0.188363
177 1 -0.032484375 -0.00261666666667 -0.018309375 0.06885
178 1 -0.032484375 -0.00261666666667 -0.017128125 0.119139
179 1 -0.032484375 -0.00261666666667 -0.015946875 0.131816
180 1 -0.032484375 -0.00261666666667 -0.014765625 0.176485
181 1 -0.032484375 -0.00261666666667 -0.013584375 0.217023
182 1 -0.032484375 -0.00261666666667 -0.012403125 0.238353
183 1 -0.032484375 -0.00261666666667 -0.011221875 0.299705
184 1 -0.032484375 -0.00261666666667 -0.010040625 0.282199
185 1 -0.032484375 -0.00261666666667 -0.008859375 0.365717
186 1 -0.032484375 -0.00261666666667 -0.007678125 0.314895
187 1 -0.032484375 -0.00261666666667 -0.006496875 0.408867
188 1 -0.032484375 -0.00261666666667 -0.005315625 0.331563
189 1 -0.032484375 -0.00261666666667 -0.004134375 0.436832
190 1 -0.032484375 -0.00261666666667 -0.002953125 0.344253
191 1 -0.032484375 -0.00261666666667 -0.001771875 0.457778
192 1 -0.032484375 -0.00261666666667 -0.000590625 0.358014
193 1 -0.032484375 -0.00261666666667 0.000590625 0.478248
194 1 -0.032484375 -0.00261666666667 0.001771875 0.368588
195 1 -0.032484375 -0.00261666666667 0.002953125 0.492662
196 1 -0.032484375 -0.00261666666667 0.004134375 0.363185
197 1 -0.032484375 -0.00261666666667 0.005315625 0.493403
198 1 -0.032484375 -0.00261666666667 0.006496875 0.342696
199 1 -0.032484375 -0.00261666666667 0.007678125 0.450476
200 1 -0.032484375 -0.00261666666667 0.008859375 0.286476
201 1 -0.032484375 -0.00261666666667 0.010040625 0.361218
202 1 -0.032484375 -0.00261666666667 0.011221875 0.216001
203 1 -0.032484375 -0.00261666666667 0.012403125 0.248189
204 1 -0.032484375 -0.00261666666667 0.013584375 0.143971
205 1 -0.032484375 -0.00261666666667 0.014765625 0.146316
206 1 -0.032484375 -0.00261666666667 0.015946875 0.0913648
207 1 -0.032484375 -0.00261666666667 0.017128125 0.0790453
208 1 -0.032484375 -0.00261666666667 0.018309375 0.0593474
209 1 -0.032484375 -0.00125 -0.018309375 0.06885
210 1 -0.032484375 -0.00125 -0.017128125 0.119139
211 1 -0.032484375 -0.00125 -0.015946875 0.131816
212 1 -0.032484375 -0.00125 -0.014765625 0.176485
213 1 -0.032484375 -0.00125 -0.013584375 0.217023
214 1 -0.032484375 -0.00125 -0.012403125 0.238353
215 1 -0.032484375 -0.00125 -0.011221875 0.299705
216 1 -0.032484375 -0.00125 -0.010040625 0.282199
217 1 -0.032484375 -0.00125 -0.008859375 0.365717
218 1 -0.032484375 -0.00125 -0.007678125 0.314895
219 1 -0.032484375 -0.00125 -0.006496875 0.408867
220 1 -0.032484375 -0.00125 -0.005315625 0.331563
221 1 -0.032484375 -0.00125 -0.004134375 0.436832
222 1 -0.032484375 -0.00125 -0.002953125 0.344253
223 1 -0.032484375 -0.00125 -0.001771875 0.457778
224 1 -0.032484375 -0.00125 -0.000590625 0.358014
225 1 -0.032484375 -0.00125 0.000590625 0.478248
226 1 -0.032484375 -0.00125 0.001771875 0.368588
227 1 -0.032484375 -0.00125 0.002953125 0.492662
228 1 -0.032484375 -0.00125 0.004134375 0.363185
229 1 -0.032484375 -0.00125 0.005315625 0.493403
230 1 -0.032484375 -0.00125 0.006496875 0.342696
231 1 -0.032484375 -0.00125 0.007678125 0.450476
232 1 -0.032484375 -0.00125 0.008859375 0.286476
233 1 -0.032484375 -0.00125 0.010040625 0.361218
234 1 -0.032484375 -0.00125 0.011221875 0.216001
235 1 -0.032484375 -0.00125 0.012403125 0.248189
236 1 -0.032484375 -0.00125 0.013584375 0.143971
237 1 -0.032484375 -0.00125 0.014765625 0.146316
238 1 -0.032484375 -0.00125 0.015946875 0.0913648
239 1 -0.032484375 -0.00125 0.017128125 0.0790453
240 1 -0.032484375 -0.00125 0.018309375 0.0593474
241 1 -0.032484375 0.000116666666667 -0.018309375 0.06885
242 1 -0.032484375 0.000116666666667 -0.017128125 0.119139
243 1 -0.032484375 0.000116666666667 -0.015946875 0.131816
244 1 -0.032484375 0.000116666666667 -0.014765625 0.176485
245 1 -0.032484375 0.000116666666667 -0.013584375 0.217023
246 1 -0.032484375 0.000116666666667 -0.012403125 0.238353
247 1 -0.032484375 0.000116666666667 -0.011221875 0.299705
248 1 -0.032484375 0.000116666666667 -0.010040625 0.282199
249 1 -0.032484375 0.000116666666667 -0.008859375 0.365717
250 1 -0.032484375 0.000116666666667 -0.007678125 0.314895
251 1 -0.032484375 0.000116666666667 -0.006496875 0.408867
252 1 -0.032484375 0.000116666666667 -0.005315625 0.331563
253 1 -0.032484375 0.000116666666667 -0.004134375 0.436832
254 1 -0.032484375 0.000116666666667 -0.002953125 0.344253
255 1 -0.032484375 0.000116666666667 -0.001771875 0.457778
256 1 -0.032484375 0.000116666666667 -0.000590625 0.358014
257 1 -0.032484375 0.000116666666667 0.000590625 0.478248
258 1 -0.032484375 0.000116666666667 0.001771875 0.368588
259 1 -0.032484375 0.000116666666667 0.002953125 0.492662
260 1 -0.032484375 0.000116666666667 0.004134375 0.363185
261 1 -0.032484375 0.000116666666667 0.005315625 0.493403
262 1 -0.032484375 0.000116666666667 0.006496875 0.342696
263 1 -0.032484375 0.000116666666667 0.007678125 0.450476
264 1 -0.032484375 0.000116666666667 0.008859375 0.286476
265 1 -0.032484375 0.000116666666667 0.010040625 0.361218
266 1 -0.032484375 0.000116666666667 0.011221875 0.216001
267 1 -0.032484375 0.000116666666667 0.012403125 0.248189
268 1 -0.032484375 0.000116666666667 0.013584375 0.143971
269 1 -0.032484375 0.000116666666667 0.014765625 0.146316
270 1 -0.032484375 0.000116666666667 0.015946875 0.0913648
271 1 -0.032484375 0.000116666666667 0.017128125 0.0790453
272 1 -0.032484375 0.000116666666667 0.018309375 0.0593474
273 1 -0.031303125 -0.00261666666667 -0.019490625 0.232653
274 1 -0.031303125 -0.00261666666667 -0.018309375 0.173121
275 1 -0.031303125 -0.00261666666667 -0.017128125 0.338371
276 1 -0.031303125 -0.00261666666667 -0.015946875 0.312273
277 1 -0.031303125 -0.00261666666667 -0.014765625 0.440537
278 1 -0.031303125 -0.00261666666667 -0.013584375 0.447501
279 1 -0.031303125 -0.00261666666667 -0.012403125 0.510859
280 1 -0.031303125 -0.00261666666667 -0.011221875 0.543881
281 1 -0.031303125 -0.00261666666667 -0.010040625 0.552288
282 1 -0.031303125 -0.00261666666667 -0.008859375 0.599857
283 1 -0.031303125 -0.00261666666667 -0.007678125 0.575433
284 1 -0.031303125 -0.00261666666667 -0.006496875 0.629059
285 1 -0.031303125 -0.00261666666667 -0.005315625 0.583018
286 1 -0.031303125 -0.00261666666667 -0.004134375 0.633269
287 1 -0.031303125 -0.00261666666667 -0.002953125 0.584298
288 1 -0.031303125 -0.00261666666667 -0.001771875 0.636808
289 1 -0.031303125 -0.00261666666667 -0.000590625 0.591948
290 1 -0.031303125 -0.00261666666667 0.000590625 0.646194
291 1 -0.031303125 -0.00261666666667 0.001771875 0.601102
292 1 -0.031303125 -0.00261666666667 0.002953125 0.660254
293 1 -0.031303125 -0.00261666666667 0.004134375 0.607513
294 1 -0.031303125 -0.00261666666667 0.005315625 0.668397
295 1 -0.031303125 -0.00261666666667 0.006496875 0.603438
296 1 -0.031303125 -0.00261666666667 0.007678125 0.646442
297 1 -0.031303125 -0.00261666666667 0.008859375 0.565142
298 1 -0.031303125 -0.00261666666667 0.010040625 0.573764
299 1 -0.031303125 -0.00261666666667 0.011221875 0.491906
300 1 -0.031303125 -0.00261666666667 0.012403125 0.451189
301 1 -0.031303125 -0.00261666666667 0.013584375 0.389931
302 1 -0.031303125 -0.00261666666667 0.014765625 0.300232
303 1 -0.031303125 -0.00261666666667 0.015946875 0.27773
304 1 -0.031303125 -0.00261666666667 0.017128125 0.174687
305 1 -0.031303125 -0.00261666666667 0.018309375 0.190622
306 1 -0.031303125 -0.00261666666667 0.019490625 0.0992067
307 1 -0.031303125 -0.00125 -0.019490625 0.232653
308 1 -0.031303125 -0.00125 -0.018309375 0.173121
309 1 -0.031303125 -0.00125 -0.017128125 0.338371
310 1 -0.031303125 -0.00125 -0.015946875 0.312273
311 1 -0.031303125 -0.00125 -0.014765625 0.440537
312 1 -0.031303125 -0.00125 -0.013584375 0.447501
313 1 -0.031303125 -0.00125 -0.012403125 0.510859
314 1 -0.031303125 -0.00125 -0.011221875 0.543881
315 1 -0.031303125 -0.00125 -0.010040625 0.552288
316 1 -0.031303125 -0.00125 -0.008859375 0.599857
317 1 -0.031303125 -0.00125 -0.007678125 0.575433
318 1 -0.031303125 -0.00125 -0.006496875 0.629059
319 1 -0.031303125 -0.00125 -0.005315625 0.583018
320 1 -0.031303125 -0.00125 -0.004134375 0.633269
321 1 -0.031303125 -0.00125 -0.002953125 0.584298
322 1 -0.031303125 -0.00125 -0.001771875 0.636808
323 1 -0.031303125 -0.00125 -0.000590625 0.591948
324 1 -0.031303125 -0.00125 0.000590625 0.646194
325 1 -0.031303125 -0.00125 0.001771875 0.601102
326 1 -0.031303125 -0.00125 0.002953125 0.660254
327 1 -0.031303125 -0.00125 0.004134375 0.607513
328 1 -0.031303125 -0.00125 0.005315625 0.668397
329 1 -0.031303125 -0.00125 0.006496875 0.603438
330 1 -0.031303125 -0.00125 0.007678125 0.646442
331 1 -0.031303125 -0.00125 0.008859375 0.565142
332 1 -0.031303125 -0.00125 0.010040625 0.573764
333 1 -0.031303125 -0.00125 0.011221875 0.491906
334 1 -0.031303125 -0.00125 0.012403125 0.451189
335 1 -0.031303125 -0.00125 0.013584375 0.389931
336 1 -0.031303125 -0.00125 0.014765625 0.300232
337 1 -0.031303125 -0.00125 0.015946875 0.27773
338 1 -0.031303125 -0.00125 0.017128125 0.174687
339 1 -0.031303125 -0.00125 0.018309375 0.190622
340 1 -0.031303125 -0.00125 0.019490625 0.0992067
341 1 -0.031303125 0.000116666666667 -0.019490625 0.232653
342 1 -0.031303125 0.000116666666667 -0.018309375 0.173121
343 1 -0.031303125 0.000116666666667 -0.017128125 0.338371
344 1 -0.031303125 0.000116666666667 -0.015946875 0.312273
345 1 -0.031303125 0.000116666666667 -0.014765625 0.440537
346 1 -0.031303125 0.000116666666667 -0.013584375 0.447501
347 1 -0.031303125 0.000116666666667 -0.012403125 0.510859
348 1 -0.031303125 0.000116666666667 -0.011221875 0.543881
349 1 -0.031303125 0.000116666666667 -0.010040625 0.552288
350 1 -0.031303125 0.000116666666667 -0.008859375 0.599857
351 1 -0.031303125 0.000116666666667 -0.007678125 0.575433
352 1 -0.031303125 0.000116666666667 -0.006496875 0.629059
353 1 -0.031303125 0.000116666666667 -0.005315625 0.583018
354 1 -0.031303125 0.000116666666667 -0.004134375 0.633269
355 1 -0.031303125 0.000116666666667 -0.002953125 0.584298
356 1 -0.031303125 0.000116666666667 -0.001771875 0.636808
357 1 -0.031303125 0.000116666666667 -0.000590625 0.591948
358 1 -0.031303125 0.000116666666667 0.000590625 0.646194
359 1 -0.031303125 0.000116666666667 0.001771875 0.601102
360 1 -0.031303125 0.000116666666667 0.002953125 0.660254
361 1 -0.031303125 0.000116666666667 0.004134375 0.607513
362 1 -0.031303125 0.000116666666667 0.005315625 0.668397
363 1 -0.031303125 0.000116666666667 0.006496875 0.603438
364 1 -0.031303125 0.000116666666667 0.007678125 0.646442
365 1 -0.031303125 0.000116666666667 0.008859375 0.565142
366 1 -0.031303125 0.000116666666667 0.010040625 0.573764
367 1 -0.031303125 0.000116666666667 0.011221875 0.491906
368 1 -0.031303125 0.000116666666667 0.012403125 0.451189
369 1 -0.031303125 0.000116666666667 0.013584375 0.389931
370 1 -0.031303125 0.000116666666667 0.014765625 0.300232
371 1 -0.031303125 0.000116666666667 0.015946875 0.27773
372 1 -0.031303125 0.000116666666667 0.017128125 0.174687
373 1 -0.031303125 0.000116666666667 0.018309375 0.190622
374 1 -0.031303125 0.000116666666667 0.019490625 0.0992067
375 1 -0.030121875 -0.00261666666667 -0.020671875 0.133709
376 1 -0.030121875 -0.00261666666667 -0.019490625 0.211274
377 1 -0.030121875 -0.00261666666667 -0.018309375 0.275662
378 1 -0.030121875 -0.00261666666667 -0.017128125 0.342743
379 1 -0.030121875 -0.00261666666667 -0.015946875 0.432623
380 1 -0.030121875 -0.00261666666667 -0.014765625 0.437344
381 1 -0.030121875 -0.00261666666667 -0.013584375 0.543963
382 1 -0.030121875 -0.00261666666667 -0.012403125 0.49544
383 1 -0.030121875 -0.00261666666667 -0.011221875 0.601456
384 1 -0.030121875 -0.00261666666667 -0.010040625 0.522379
385 1 -0.030121875 -0.00261666666667 -0.008859375 0.629246
386 1 -0.030121875 -0.00261666666667 -0.007678125 0.53767
387 1 -0.030121875 -0.00261666666667 -0.006496875 0.636179
388 1 -0.030121875 -0.00261666666667 -0.005315625 0.539704
389 1 -0.030121875 -0.00261666666667 -0.004134375 0.632469
390 1 -0.030121875 -0.00261666666667 -0.002953125 0.538764
391 1 -0.030121875 -0.00261666666667 -0.001771875 0.633059
392 1 -0.030121875 -0.00261666666667 -0.000590625 0.54623
393 1 -0.030121875 -0.00261666666667 0.000590625 0.644195
394 1 -0.030121875 -0.00261666666667 0.001771875 0.557073
395 1 -0.030121875 -0.00261666666667 0.002953125 0.663028
396 1 -0.030121875 -0.00261666666667 0.004134375 0.561182
397 1 -0.030121875 -0.00261666666667 0.005315625 0.685295
398 1 -0.030121875 -0.00261666666667 0.006496875 0.558526
399 1 -0.030121875 -0.00261666666667 0.007678125 0.684617
400 1 -0.030121875 -0.00261666666667 0.008859375 0.519279
401 1 -0.030121875 -0.00261666666667 0.010040625 0.653945
402 1 -0.030121875 -0.00261666666667 0.011221875 0.45619
403 1 -0.030121875 -0.00261666666667 0.012403125 0.581107
404 1 -0.030121875 -0.00261666666667 0.013584375 0.360381
405 1 -0.030121875 -0.00261666666667 0.014765625 0.433783
406 1 -0.030121875 -0.00261666666667 0.015946875 0.236923
407 1 -0.030121875 -0.00261666666667 0.017128125 0.265087
408 1 -0.030121875 -0.00261666666667 0.018309375 0.147102
409 1 -0.030121875 -0.00261666666667 0.019490625 0.147646
410 1 -0.030121875 -0.00261666666667 0.020671875 0.0963089
411 1 -0.030121875 -0.00125 -0.020671875 0.133709
412 1 -0.030121875 -0.00125 -0.019490625 0.211274
413 1 -0.030121875 -0.00125 -0.018309375 0.275662
414 1 -0.030121875 -0.00125 -0.017128125 0.342743
415 1 -0.030121875 -0.00125 -0.015946875 0.432623
416 1 -0.030121875 -0.00125 -0.014765625 0.437344
417 1 -0.030121875 -0.00125 -0.013584375 0.543963
418 1 -0.030121875 -0.00125 -0.012403125 0.49544
419 1 -0.030121875 -0.00125 -0.011221875 0.601456
420 1 -0.030121875 -0.00125 -0.010040625 0.522379
421 1 -0.030121875 -0.00125 -0.008859375 0.629246
422 1 -0.030121875 -0.00125 -0.007678125 0.53767
423 1 -0.030121875 -0.00125 -0.006496875 0.636179
424 1 -0.030121875 -0.00125 -0.005315625 0.539704
425 1 -0.030121875 -0.00125 -0.004134375 0.632469
426 1 -0.030121875 -0.00125 -0.002953125 0.538764
427 1 -0.030121875 -0.00125 -0.001771875 0.633059
428 1 -0.030121875 -0.00125 -0.000590625 0.54623
429 1 -0.030121875 -0.00125 0.000590625 0.644195
430 1 -0.030121875 -0.00125 0.001771875 0.557073
431 1 -0.030121875 -0.00125 0.002953125 0.663028
432 1 -0.030121875 -0.00125 0.004134375 0.561182
433 1 -0.030121875 -0.00125 0.005315625 0.685295
434 1 -0.030121875 -0.00125 0.006496875 0.558526
435 1 -0.030121875 -0.00125 0.007678125 0.684617
436 1 -0.030121875 -0.00125 0.008859375 0.519279
437 1 -0.030121875 -0.00125 0.010040625 0.653945
438 1 -0.030121875 -0.00125 0.011221875 0.45619
439 1 -0.030121875 -0.00125 0.012403125 0.581107
440 1 -0.030121875 -0.00125 0.013584375 0.360381
441 1 -0.030121875 -0.00125 0.014765625 0.433783
442 1 -0.030121875 -0.00125 0.015946875 0.236923
443 1 -0.030121875 -0.00125 0.017128125 0.265087
444 1 -0.030121875 -0.00125 0.018309375 0.147102
445 1 -0.030121875 -0.00125 0.019490625 0.147646
446 1 -0.030121875 -0.00125 0.020671875 0.0963089
447 1 -0.030121875 0.000116666666667 -0.020671875 0.133709
448 1 -0.030121875 0.000116666666667 -0.019490625 0.211274
449 1 -0.030121875 0.000116666666667 -0.018309375 0.275662
450 1 -0.030121875 0.000116666666667 -0.017128125 0.342743
451 1 -0.030121875 0.000116666666667 -0.015946875 0.432623
452 1 -0.030121875 0.000116666666667 -0.014765625 0.437344
453 1 -0.030121875 0.000116666666667 -0.013584375 0.543963
454 1 -0.030121875 0.000116666666667 -0.012403125 0.49544
455 1 -0.030121875 0.000116666666667 -0.011221875 0.601456
456 1 -0.030121875 0.000116666666667 -0.010040625 0.522379
457 1 -0.030121875 0.000116666666667 -0.008859375 0.629246
458 1 -0.030121875 0.000116666666667 -0.007678125 0.53767
459 1 -0.030121875 0.000116666666667 -0.006496875 0.636179
460 1 -0.030121875 0.000116666666667 -0.005315625 0.539704
461 1 -0.030121875 0.000116666666667 -0.004134375 0.632469
462 1 -0.030121875 0.000116666666667 -0.002953125 0.538764
463 1 -0.030121875 0.000116666666667 -0.001771875 0.633059
464 1 -0.030121875 0.000116666666667 -0.000590625 0.54623
465 1 -0.030121875 0.000116666666667 0.000590625 0.644195
466 1 -0.030121875 0.000116666666667 0.001771875 0.557073
467 1 -0.030121875 0.000116666666667 0.002953125 0.663028
468 1 -0.030121875 0.000116666666667 0.004134375 0.561182
469 1 -0.030121875 0.000116666666667 0.005315625 0.685295
470 1 -0.030121875 0.000116666666667 0.006496875 0.558526
471 1 -0.030121875 0.000116666666667 0.007678125 0.684617
472 1 -0.030121875 0.000116666666667 0.008859375 0.519279
473 1 -0.030121875 0.000116666666667 0.010040625 0.653945
474 1 -0.030121875 0.000116666666667 0.011221875 0.45619
475 1 -0.030121875 0.000116666666667 0.012403125 0.581107
476 1 -0.030121875 0.000116666666667 0.013584375 0.360381
477 1 -0.030121875 0.000116666666667 0.014765625 0.433783
478 1 -0.030121875 0.000116666666667 0.015946875 0.236923
479 1 -0.030121875 0.000116666666667 0.017128125 0.265087
480 1 -0.030121875 0.000116666666667 0.018309375 0.147102
481 1 -0.030121875 0.000116666666667 0.019490625 0.147646
482 1 -0.030121875 0.000116666666667 0.020671875 0.0963089
483 1 -0.028940625 -0.00261666666667 -0.021853125 0.272886
484 1 -0.028940625 -0.00261666666667 -0.020671875 0.233364
485 1 -0.028940625 -0.00261666666667 -0.019490625 0.41492
486 1 -0.028940625 -0.00261666666667 -0.018309375 0.429802
487 1 -0.028940625 -0.00261666666667 -0.017128125 0.532649
488 1 -0.028940625 -0.00261666666667 -0.015946875 0.581011
489 1 -0.028940625 -0.00261666666667 -0.014765625 0.590425
490 1 -0.028940625 -0.00261666666667 -0.013584375 0.630474
491 1 -0.028940625 -0.00261666666667 -0.012403125 0.606234
492 1 -0.028940625 -0.00261666666667 -0.011221875 0.639589
493 1 -0.028940625 -0.00261666666667 -0.010040625 0.611267
494 1 -0.028940625 -0.00261666666667 -0.008859375 0.637666
495 1 -0.028940625 -0.00261666666667 -0.007678125 0.608542
496 1 -0.028940625 -0.00261666666667 -0.006496875 0.634568
497 1 -0.028940625 -0.00261666666667 -0.005315625 0.607252
498 1 -0.028940625 -0.00261666666667 -0.004134375 0.630282
499 1 -0.028940625 -0.00261666666667 -0.002953125 0.605951
500 1 -0.028940625 -0.00261666666667 -0.001771875 0.632548
501 1 -0.028940625 -0.00261666666667 -0.000590625 0.613479
502 1 -0.028940625 -0.00261666666667 0.000590625 0.642875
503 1 -0.028940625 -0.00261666666667 0.001771875 0.624209
504 1 -0.028940625 -0.00261666666667 0.002953125 0.657783
505 1 -0.028940625 -0.00261666666667 0.004134375 0.63329
506 1 -0.028940625 -0.00261666666667 0.005315625 0.670267
507 1 -0.028940625 -0.00261666666667 0.006496875 0.635419
508 1 -0.028940625 -0.00261666666667 0.007678125 0.675929
509 1 -0.028940625 -0.00261666666667 0.008859375 0.625776
510 1 -0.028940625 -0.00261666666667 0.010040625 0.672584
511 1 -0.028940625 -0.00261666666667 0.011221875 0.601357
512 1 -0.028940625 -0.00261666666667 0.012403125 0.649881
513 1 -0.028940625 -0.00261666666667 0.013584375 0.552874
514 1 -0.028940625 -0.00261666666667 0.014765625 0.559192
515 1 -0.028940625 -0.00261666666667 0.015946875 0.444297
516 1 -0.028940625 -0.00261666666667 0.017128125 0.394744
517 1 -0.028940625 -0.00261666666667 0.018309375 0.326211
518 1 -0.028940625 -0.00261666666667 0.019490625 0.247118
519 1 -0.028940625 -0.00261666666667 0.020671875 0.235776
520 1 -0.028940625 -0.00261666666667 0.021853125 0.15396
521 1 -0.028940625 -0.00125 -0.021853125 0.272886
522 1 -0.028940625 -0.00125 -0.020671875 0.233364
523 1 -0.028940625 -0.00125 -0.019490625 0.41492
524 1 -0.028940625 -0.00125 -0.018309375 0.429802
525 1 -0.028940625 -0.00125 -0.017128125 0.532649
526 1 -0.028940625 -0.00125 -0.015946875 0.581011
527 1 -0.028940625 -0.00125 -0.014765625 0.590425
528 1 -0.028940625 -0.00125 -0.013584375 0.630474
529 1 -0.028940625 -0.00125 -0.012403125 0.606234
530 1 -0.028940625 -0.00125 -0.011221875 0.639589
531 1 -0.028940625 -0.00125 -0.010040625 0.611267
532 1 -0.028940625 -0.00125 -0.008859375 0.637666
533 1 -0.028940625 -0.00125 -0.007678125 0.608542
534 1 -0.028940625 -0.00125 -0.006496875 0.634568
535 1 -0.028940625 -0.00125 -0.005315625 0.607252
536 1 -0.028940625 -0.00125 -0.004134375 0.630282