ITEM: TIMESTEP
0
ITEM: NUMBER OF ATOMS
9240
ITEM: BOX BOUNDS ss ss ss
-3.7007399999999996e-02 3.7007399999999996e-02
-2.0002499999999999e-03 2.5000000000000004e-07
-3.7007399999999996e-02 3.7007399999999996e-02
ITEM: ATOMS id type x y z c_1
0 1 -0.037209375 -0.00261666666667 -0.000590625 0.258457
1 1 -0.037209375 -0.00125 -0.000590625 0.258457
2 1 -0.037209375 0.000116666666667 -0.000590625 0.258457
3 1 -0.036028125 -0.00261666666667 -0.007678125 0.216448
4 1 -0.036028125 -0.00261666666667 -0.006496875 0.0847221
5 1 -0.036028125 -0.00261666666667 -0.005315625 0.221691
6 1 -0.036028125 -0.00261666666667 -0.004134375 0.0887955
7 1 -0.036028125 -0.00261666666667 -0.002953125 0.221409
8 1 -0.036028125 -0.00261666666667 -0.001771875 0.09116
9 1 -0.036028125 -0.00261666666667 -0.000590625 0.219818
10 1 -0.036028125 -0.00261666666667 0.000590625 0.0913621
11 1 -0.036028125 -0.00261666666667 0.001771875 0.214253
12 1 -0.036028125 -0.00261666666667 0.002953125 0.0895701
13 1 -0.036028125 -0.00261666666667 0.004134375 0.204975
14 1 -0.036028125 -0.00261666666667 0.005315625 0.083066
15 1 -0.036028125 -0.00261666666667 0.006496875 0.187848
16 1 -0.036028125 -0.00261666666667 0.007678125 0.0739259
17 1 -0.036028125 -0.00125 -0.007678125 0.216448
18 1 -0.036028125 -0.00125 -0.006496875 0.0847221
19 1 -0.036028125 -0.00125 -0.005315625 0.221691
20 1 -0.036028125 -0.00125 -0.004134375 0.0887955
21 1 -0.036028125 -0.00125 -0.002953125 0.221409
22 1 -0.036028125 -0.00125 -0.001771875 0.09116
23 1 -0.036028125 -0.00125 -0.000590625 0.219818
24 1 -0.036028125 -0.00125 0.000590625 0.0913621
25 1 -0.036028125 -0.00125 0.001771875 0.214253
26 1 -0.036028125 -0.00125 0.002953125 0.0895701
27 1 -0.036028125 -0.00125 0.004134375 0.204975
28 1 -0.036028125 -0.00125 0.005315625 0.083066
29 1 -0.036028125 -0.00125 0.006496875 0.187848
30 1 -0.036028125 -0.00125 0.007678125 0.0739259
31 1 -0.036028125 0.000116666666667 -0.007678125 0.216448
32 1 -0.036028125 0.000116666666667 -0.006496875 0.0847221
33 1 -0.036028125 0.000116666666667 -0.005315625 0.221691
34 1 -0.036028125 0.000116666666667 -0.004134375 0.0887955
35 1 -0.036028125 0.000116666666667 -0.002953125 0.221409
36 1 -0.036028125 0.000116666666667 -0.001771875 0.09116
37 1 -0.036028125 0.000116666666667 -0.000590625 0.219818
38 1 -0.036028125 0.000116666666667 0.000590625 0.0913621
39 1 -0.036028125 0.000116666666667 0.001771875 0.214253
40 1 -0.036028125 0.000116666666667 0.002953125 0.0895701
41 1 -0.036028125 0.000116666666667 0.004134375 0.204975
42 1 -0.036028125 0.000116666666667 0.005315625 0.083066
43 1 -0.036028125 0.000116666666667 0.006496875 0.187848
44 1 -0.036028125 0.000116666666667 0.007678125 0.0739259
45 1 -0.034846875 -0.00261666666667 -0.011221875 0.0836178
46 1 -0.034846875 -0.00261666666667 -0.010040625 0.155361
47 1 -0.034846875 -0.00261666666667 -0.008859375 0.104269
48 1 -0.034846875 -0.00261666666667 -0.007678125 0.170403
49 1 -0.034846875 -0.00261666666667 -0.006496875 0.117164
50 1 -0.034846875 -0.00261666666667 -0.005315625 0.173622
51 1 -0.034846875 -0.00261666666667 -0.004134375 0.125235
52 1 -0.034846875 -0.00261666666667 -0.002953125 0.174112
53 1 -0.034846875 -0.00261666666667 -0.001771875 0.12912
54 1 -0.034846875 -0.00261666666667 -0.000590625 0.171233
55 1 -0.034846875 -0.00261666666667 0.000590625 0.129137
56 1 -0.034846875 -0.00261666666667 0.001771875 0.166673
57 1 -0.034846875 -0.00261666666667 0.002953125 0.125281
58 1 -0.034846875 -0.00261666666667 0.004134375 0.156811
59 1 -0.034846875 -0.00261666666667 0.005315625 0.117464
60 1 -0.034846875 -0.00261666666667 0.006496875 0.142408
61 1 -0.034846875 -0.00261666666667 0.007678125 0.102611
62 1 -0.034846875 -0.00261666666667 0.008859375 0.122242
63 1 -0.034846875 -0.00261666666667 0.010040625 0.0825982
64 1 -0.034846875 -0.00261666666667 0.011221875 0.100665
65 1 -0.034846875 -0.00125 -0.011221875 0.0836178
66 1 -0.034846875 -0.00125 -0.010040625 0.155361
67 1 -0.034846875 -0.00125 -0.008859375 0.104269
68 1 -0.034846875 -0.00125 -0.007678125 0.170403
69 1 -0.034846875 -0.00125 -0.006496875 0.117164
70 1 -0.034846875 -0.00125 -0.005315625 0.173622
71 1 -0.034846875 -0.00125 -0.004134375 0.125235
72 1 -0.034846875 -0.00125 -0.002953125 0.174112
73 1 -0.034846875 -0.00125 -0.001771875 0.12912
74 1 -0.034846875 -0.00125 -0.000590625 0.171233
75 1 -0.034846875 -0.00125 0.000590625 0.129137
76 1 -0.034846875 -0.00125 0.001771875 0.166673
77 1 -0.034846875 -0.00125 0.002953125 0.125281
78 1 -0.034846875 -0.00125 0.004134375 0.156811
79 1 -0.034846875 -0.00125 0.005315625 0.117464
80 1 -0.034846875 -0.00125 0.006496875 0.142408
81 1 -0.034846875 -0.00125 0.007678125 0.102611
82 1 -0.034846875 -0.00125 0.008859375 0.122242
83 1 -0.034846875 -0.00125 0.010040625 0.0825982
84 1 -0.034846875 -0.00125 0.011221875 0.100665
85 1 -0.034846875 0.000116666666667 -0.011221875 0.0836178
86 1 -0.034846875 0.000116666666667 -0.010040625 0.155361
87 1 -0.034846875 0.000116666666667 -0.008859375 0.104269
88 1 -0.034846875 0.000116666666667 -0.007678125 0.170403
89 1 -0.034846875 0.000116666666667 -0.006496875 0.117164
90 1 -0.034846875 0.000116666666667 -0.005315625 0.173622
91 1 -0.034846875 0.000116666666667 -0.004134375 0.125235
92 1 -0.034846875 0.000116666666667 -0.002953125 0.174112
93 1 -0.034846875 0.000116666666667 -0.001771875 0.12912
94 1 -0.034846875 0.000116666666667 -0.000590625 0.171233
95 1 -0.034846875 0.000116666666667 0.000590625 0.129137
96 1 -0.034846875 0.000116666666667 0.001771875 0.166673
97 1 -0.034846875 0.000116666666667 0.002953125 0.125281
98 1 -0.034846875 0.000116666666667 0.004134375 0.156811
99 1 -0.034846875 0.000116666666667 0.005315625 0.117464
100 1 -0.034846875 0.000116666666667 0.006496875 0.142408
101 1 -0.034846875 0.000116666666667 0.007678125 0.102611
102 1 -0.034846875 0.000116666666667 0.008859375 0.122242
103 1 -0.034846875 0.000116666666667 0.010040625 0.0825982
104 1 -0.034846875 0.000116666666667 0.011221875 0.100665
105 1 -0.033665625 -0.00261666666667 -0.013584375 0.160446
106 1 -0.033665625 -0.00261666666667 -0.012403125 0.337781
107 1 -0.033665625 -0.00261666666667 -0.011221875 0.231914
108 1 -0.033665625 -0.00261666666667 -0.010040625 0.392856
109 1 -0.033665625 -0.00261666666667 -0.008859375 0.287127
110 1 -0.033665625 -0.00261666666667 -0.007678125 0.421748
111 1 -0.033665625 -0.00261666666667 -0.006496875 0.3215
112 1 -0.033665625 -0.00261666666667 -0.005315625 0.433034
113 1 -0.033665625 -0.00261666666667 -0.004134375 0.337856
114 1 -0.033665625 -0.00261666666667 -0.002953125 0.433809
115 1 -0.033665625 -0.00261666666667 -0.001771875 0.345886
116 1 -0.033665625 -0.00261666666667 -0.000590625 0.431854
117 1 -0.033665625 -0.00261666666667 0.000590625 0.346765
118 1 -0.033665625 -0.00261666666667 0.001771875 0.42366
119 1 -0.033665625 -0.00261666666667 0.002953125 0.341958
120 1 -0.033665625 -0.00261666666667 0.004134375 0.40984
121 1 -0.033665625 -0.00261666666667 0.005315625 0.322749
122 1 -0.033665625 -0.00261666666667 0.006496875 0.383464
123 1 -0.033665625 -0.00261666666667 0.007678125 0.289446
124 1 -0.033665625 -0.00261666666667 0.008859375 0.34461
125 1 -0.033665625 -0.00261666666667 0.010040625 0.23622
126 1 -0.033665625 -0.00261666666667 0.011221875 0.283755
127 1 -0.033665625 -0.00261666666667 0.012403125 0.170751
128 1 -0.033665625 -0.00261666666667 0.013584375 0.215533
129 1 -0.033665625 -0.00125 -0.013584375 0.160446
130 1 -0.033665625 -0.00125 -0.012403125 0.337781
131 1 -0.033665625 -0.00125 -0.011221875 0.231914
132 1 -0.033665625 -0.00125 -0.010040625 0.392856
133 1 -0.033665625 -0.00125 -0.008859375 0.287127
134 1 -0.033665625 -0.00125 -0.007678125 0.421748
135 1 -0.033665625 -0.00125 -0.006496875 0.3215
136 1 -0.033665625 -0.00125 -0.005315625 0.433034
137 1 -0.033665625 -0.00125 -0.004134375 0.337856
138 1 -0.033665625 -0.00125 -0.002953125 0.433809
139 1 -0.033665625 -0.00125 -0.001771875 0.345886
140 1 -0.033665625 -0.00125 -0.000590625 0.431854
141 1 -0.033665625 -0.00125 0.000590625 0.346765
142 1 -0.033665625 -0.00125 0.001771875 0.42366
143 1 -0.033665625 -0.00125 0.002953125 0.341958
144 1 -0.033665625 -0.00125 0.004134375 0.40984
145 1 -0.033665625 -0.00125 0.005315625 0.322749
146 1 -0.033665625 -0.00125 0.006496875 0.383464
147 1 -0.033665625 -0.00125 0.007678125 0.289446
148 1 -0.033665625 -0.00125 0.008859375 0.34461
149 1 -0.033665625 -0.00125 0.010040625 0.23622
150 1 -0.033665625 -0.00125 0.011221875 0.283755
151 1 -0.033665625 -0.00125 0.012403125 0.170751
152 1 -0.033665625 -0.00125 0.013584375 0.215533
153 1 -0.033665625 0.000116666666667 -0.013584375 0.160446
154 1 -0.033665625 0.000116666666667 -0.012403125 0.337781
155 1 -0.033665625 0.000116666666667 -0.011221875 0.231914
156 1 -0.033665625 0.000116666666667 -0.010040625 0.392856
157 1 -0.033665625 0.000116666666667 -0.008859375 0.287127
158 1 -0.033665625 0.000116666666667 -0.007678125 0.421748
159 1 -0.033665625 0.000116666666667 -0.006496875 0.3215
160 1 -0.033665625 0.000116666666667 -0.005315625 0.433034
161 1 -0.033665625 0.000116666666667 -0.004134375 0.337856
162 1 -0.033665625 0.000116666666667 -0.002953125 0.433809
163 1 -0.033665625 0.000116666666667 -0.001771875 0.345886
164 1 -0.033665625 0.000116666666667 -0.000590625 0.431854
165 1 -0.033665625 0.000116666666667 0.000590625 0.346765
166 1 -0.033665625 0.000116666666667 0.001771875 0.42366
167 1 -0.033665625 0.000116666666667 0.002953125 0.341958
168 1 -0.033665625 0.000116666666667 0.004134375 0.40984
169 1 -0.033665625 0.000116666666667 0.005315625 0.322749
170 1 -0.033665625 0.000116666666667 0.006496875 0.383464
171 1 -0.033665625 0.000116666666667 0.007678125 0.289446
172 1 -0.033665625 0.000116666666667 0.008859375 0.34461
173 1 -0.033665625 0.000116666666667 0.010040625 0.23622
174 1 -0.033665625 0.000116666666667 0.011221875 0.283755
175 1 -0.033665625 0.000116666666667 0.012403125 0.170751
176 1 -0.033665625 0.000116666666667 0.013584375 0.215533
177 1 -0.032484375 -0.00261666666667 -0.018309375 0.0950924
178 1 -0.032484375 -0.00261666666667 -0.017128125 0.170701
179 1 -0.032484375 -0.00261666666667 -0.015946875 0.199891
180 1 -0.032484375 -0.00261666666667 -0.014765625 0.26311
181 1 -0.032484375 -0.00261666666667 -0.013584375 0.336623
182 1 -0.032484375 -0.00261666666667 -0.012403125 0.356443
183 1 -0.032484375 -0.00261666666667 -0.011221875 0.451381
184 1 -0.032484375 -0.00261666666667 -0.010040625 0.404181
185 1 -0.032484375 -0.00261666666667 -0.008859375 0.524056
186 1 -0.032484375 -0.00261666666667 -0.007678125 0.425138
187 1 -0.032484375 -0.00261666666667 -0.006496875 0.559062
188 1 -0.032484375 -0.00261666666667 -0.005315625 0.42491
189 1 -0.032484375 -0.00261666666667 -0.004134375 0.571124
190 1 -0.032484375 -0.00261666666667 -0.002953125 0.421028
191 1 -0.032484375 -0.00261666666667 -0.001771875 0.57289
192 1 -0.032484375 -0.00261666666667 -0.000590625 0.414271
193 1 -0.032484375 -0.00261666666667 0.000590625 0.569907
194 1 -0.032484375 -0.00261666666667 0.001771875 0.406913
195 1 -0.032484375 -0.00261666666667 0.002953125 0.56506
196 1 -0.032484375 -0.00261666666667 0.004134375 0.392011
197 1 -0.032484375 -0.00261666666667 0.005315625 0.559904
198 1 -0.032484375 -0.00261666666667 0.006496875 0.373071
199 1 -0.032484375 -0.00261666666667 0.007678125 0.532237
200 1 -0.032484375 -0.00261666666667 0.008859375 0.335799
201 1 -0.032484375 -0.00261666666667 0.010040625 0.465763
202 1 -0.032484375 -0.00261666666667 0.011221875 0.274498
203 1 -0.032484375 -0.00261666666667 0.012403125 0.357485
204 1 -0.032484375 -0.00261666666667 0.013584375 0.194307
205 1 -0.032484375 -0.00261666666667 0.014765625 0.230258
206 1 -0.032484375 -0.00261666666667 0.015946875 0.125134
207 1 -0.032484375 -0.00261666666667 0.017128125 0.127929
208 1 -0.032484375 -0.00261666666667 0.018309375 0.0790934
209 1 -0.032484375 -0.00125 -0.018309375 0.0950924
210 1 -0.032484375 -0.00125 -0.017128125 0.170701
211 1 -0.032484375 -0.00125 -0.015946875 0.199891
212 1 -0.032484375 -0.00125 -0.014765625 0.26311
213 1 -0.032484375 -0.00125 -0.013584375 0.336623
214 1 -0.032484375 -0.00125 -0.012403125 0.356443
215 1 -0.032484375 -0.00125 -0.011221875 0.451381
216 1 -0.032484375 -0.00125 -0.010040625 0.404181
217 1 -0.032484375 -0.00125 -0.008859375 0.524056
218 1 -0.032484375 -0.00125 -0.007678125 0.425138
219 1 -0.032484375 -0.00125 -0.006496875 0.559062
220 1 -0.032484375 -0.00125 -0.005315625 0.42491
221 1 -0.032484375 -0.00125 -0.004134375 0.571124
222 1 -0.032484375 -0.00125 -0.002953125 0.421028
223 1 -0.032484375 -0.00125 -0.001771875 0.57289
224 1 -0.032484375 -0.00125 -0.000590625 0.414271
225 1 -0.032484375 -0.00125 0.000590625 0.569907
226 1 -0.032484375 -0.00125 0.001771875 0.406913
227 1 -0.032484375 -0.00125 0.002953125 0.56506
228 1 -0.032484375 -0.00125 0.004134375 0.392011
229 1 -0.032484375 -0.00125 0.005315625 0.559904
230 1 -0.032484375 -0.00125 0.006496875 0.373071
231 1 -0.032484375 -0.00125 0.007678125 0.532237
232 1 -0.032484375 -0.00125 0.008859375 0.335799
233 1 -0.032484375 -0.00125 0.010040625 0.465763
234 1 -0.032484375 -0.00125 0.011221875 0.274498
235 1 -0.032484375 -0.00125 0.012403125 0.357485
236 1 -0.032484375 -0.00125 0.013584375 0.194307
237 1 -0.032484375 -0.00125 0.014765625 0.230258
238 1 -0.032484375 -0.00125 0.015946875 0.125134
239 1 -0.032484375 -0.00125 0.017128125 0.127929
240 1 -0.032484375 -0.00125 0.018309375 0.0790934
241 1 -0.032484375 0.000116666666667 -0.018309375 0.0950924
242 1 -0.032484375 0.000116666666667 -0.017128125 0.170701
243 1 -0.032484375 0.000116666666667 -0.015946875 0.199891
244 1 -0.032484375 0.000116666666667 -0.014765625 0.26311
245 1 -0.032484375 0.000116666666667 -0.013584375 0.336623
246 1 -0.032484375 0.000116666666667 -0.012403125 0.356443
247 1 -0.032484375 0.000116666666667 -0.011221875 0.451381
248 1 -0.032484375 0.000116666666667 -0.010040625 0.404181
249 1 -0.032484375 0.000116666666667 -0.008859375 0.524056
250 1 -0.032484375 0.000116666666667 -0.007678125 0.425138
251 1 -0.032484375 0.000116666666667 -0.006496875 0.559062
252 1 -0.032484375 0.000116666666667 -0.005315625 0.42491
253 1 -0.032484375 0.000116666666667 -0.004134375 0.571124
254 1 -0.032484375 0.000116666666667 -0.002953125 0.421028
255 1 -0.032484375 0.000116666666667 -0.001771875 0.57289
256 1 -0.032484375 0.000116666666667 -0.000590625 0.414271
257 1 -0.032484375 0.000116666666667 0.000590625 0.569907
258 1 -0.032484375 0.000116666666667 0.001771875 0.406913
259 1 -0.032484375 0.000116666666667 0.002953125 0.56506
260 1 -0.032484375 0.000116666666667 0.004134375 0.392011
261 1 -0.032484375 0.000116666666667 0.005315625 0.559904
262 1 -0.032484375 0.000116666666667 0.006496875 0.373071
263 1 -0.032484375 0.000116666666667 0.007678125 0.532237
264 1 -0.032484375 0.000116666666667 0.008859375 0.335799
265 1 -0.032484375 0.000116666666667 0.010040625 0.465763
266 1 -0.032484375 0.000116666666667 0.011221875 0.274498
267 1 -0.032484375 0.000116666666667 0.012403125 0.357485
268 1 -0.032484375 0.000116666666667 0.013584375 0.194307
269 1 -0.032484375 0.000116666666667 0.014765625 0.230258
270 1 -0.032484375 0.000116666666667 0.015946875 0.125134
271 1 -0.032484375 0.000116666666667 0.017128125 0.127929
272 1 -0.032484375 0.000116666666667 0.018309375 0.0790934
273 1 -0.031303125 -0.00261666666667 -0.019490625 0.250695
274 1 -0.031303125 -0.00261666666667 -0.018309375 0.213623
275 1 -0.031303125 -0.00261666666667 -0.017128125 0.395007
276 1 -0.031303125 -0.00261666666667 -0.015946875 0.40134
277 1 -0.031303125 -0.00261666666667 -0.014765625 0.525653
278 1 -0.031303125 -0.00261666666667 -0.013584375 0.56726
279 1 -0.031303125 -0.00261666666667 -0.012403125 0.615135
280 1 -0.031303125 -0.00261666666667 -0.011221875 0.667678
281 1 -0.031303125 -0.00261666666667 -0.010040625 0.658267
282 1 -0.031303125 -0.00261666666667 -0.008859375 0.71064
283 1 -0.031303125 -0.00261666666667 -0.007678125 0.668912
284 1 -0.031303125 -0.00261666666667 -0.006496875 0.721731
285 1 -0.031303125 -0.00261666666667 -0.005315625 0.668587
286 1 -0.031303125 -0.00261666666667 -0.004134375 0.717976
287 1 -0.031303125 -0.00261666666667 -0.002953125 0.66063
288 1 -0.031303125 -0.00261666666667 -0.001771875 0.71299
289 1 -0.031303125 -0.00261666666667 -0.000590625 0.655926
290 1 -0.031303125 -0.00261666666667 0.000590625 0.708876
291 1 -0.031303125 -0.00261666666667 0.001771875 0.649454
292 1 -0.031303125 -0.00261666666667 0.002953125 0.710489
293 1 -0.031303125 -0.00261666666667 0.004134375 0.645207
294 1 -0.031303125 -0.00261666666667 0.005315625 0.709688
295 1 -0.031303125 -0.00261666666667 0.006496875 0.633918
296 1 -0.031303125 -0.00261666666667 0.007678125 0.69931
297 1 -0.031303125 -0.00261666666667 0.008859375 0.610423
298 1 -0.031303125 -0.00261666666667 0.010040625 0.662076
299 1 -0.031303125 -0.00261666666667 0.011221875 0.554223
300 1 -0.031303125 -0.00261666666667 0.012403125 0.578582
301 1 -0.031303125 -0.00261666666667 0.013584375 0.463836
302 1 -0.031303125 -0.00261666666667 0.014765625 0.437586
303 1 -0.031303125 -0.00261666666667 0.015946875 0.34953
304 1 -0.031303125 -0.00261666666667 0.017128125 0.278902
305 1 -0.031303125 -0.00261666666667 0.018309375 0.237512
306 1 -0.031303125 -0.00261666666667 0.019490625 0.158803
307 1 -0.031303125 -0.00125 -0.019490625 0.250695
308 1 -0.031303125 -0.00125 -0.018309375 0.213623
309 1 -0.031303125 -0.00125 -0.017128125 0.395007
310 1 -0.031303125 -0.00125 -0.015946875 0.40134
311 1 -0.031303125 -0.00125 -0.014765625 0.525653
312 1 -0.031303125 -0.00125 -0.013584375 0.56726
313 1 -0.031303125 -0.00125 -0.012403125 0.615135
314 1 -0.031303125 -0.00125 -0.011221875 0.667678
315 1 -0.031303125 -0.00125 -0.010040625 0.658267
316 1 -0.031303125 -0.00125 -0.008859375 0.71064
317 1 -0.031303125 -0.00125 -0.007678125 0.668912
318 1 -0.031303125 -0.00125 -0.006496875 0.721731
319 1 -0.031303125 -0.00125 -0.005315625 0.668587
320 1 -0.031303125 -0.00125 -0.004134375 0.717976
321 1 -0.031303125 -0.00125 -0.002953125 0.66063
322 1 -0.031303125 -0.00125 -0.001771875 0.71299
323 1 -0.031303125 -0.00125 -0.000590625 0.655926
324 1 -0.031303125 -0.00125 0.000590625 0.708876
325 1 -0.031303125 -0.00125 0.001771875 0.649454
326 1 -0.031303125 -0.00125 0.002953125 0.710489
327 1 -0.031303125 -0.00125 0.004134375 0.645207
328 1 -0.031303125 -0.00125 0.005315625 0.709688
329 1 -0.031303125 -0.00125 0.006496875 0.633918
330 1 -0.031303125 -0.00125 0.007678125 0.69931
331 1 -0.031303125 -0.00125 0.008859375 0.610423
332 1 -0.031303125 -0.00125 0.010040625 0.662076
333 1 -0.031303125 -0.00125 0.011221875 0.554223
334 1 -0.031303125 -0.00125 0.012403125 0.578582
335 1 -0.031303125 -0.00125 0.013584375 0.463836
336 1 -0.031303125 -0.00125 0.014765625 0.437586
337 1 -0.031303125 -0.00125 0.015946875 0.34953
338 1 -0.031303125 -0.00125 0.017128125 0.278902
339 1 -0.031303125 -0.00125 0.018309375 0.237512
340 1 -0.031303125 -0.00125 0.019490625 0.158803
341 1 -0.031303125 0.000116666666667 -0.019490625 0.250695
342 1 -0.031303125 0.000116666666667 -0.018309375 0.213623
343 1 -0.031303125 0.000116666666667 -0.017128125 0.395007
344 1 -0.031303125 0.000116666666667 -0.015946875 0.40134
345 1 -0.031303125 0.000116666666667 -0.014765625 0.525653
346 1 -0.031303125 0.000116666666667 -0.013584375 0.56726
347 1 -0.031303125 0.000116666666667 -0.012403125 0.615135
348 1 -0.031303125 0.000116666666667 -0.011221875 0.667678
349 1 -0.031303125 0.000116666666667 -0.010040625 0.658267
350 1 -0.031303125 0.000116666666667 -0.008859375 0.71064
351 1 -0.031303125 0.000116666666667 -0.007678125 0.668912
352 1 -0.031303125 0.000116666666667 -0.006496875 0.721731
353 1 -0.031303125 0.000116666666667 -0.005315625 0.668587
354 1 -0.031303125 0.000116666666667 -0.004134375 0.717976
355 1 -0.031303125 0.000116666666667 -0.002953125 0.66063
356 1 -0.031303125 0.000116666666667 -0.001771875 0.71299
357 1 -0.031303125 0.000116666666667 -0.000590625 0.655926
358 1 -0.031303125 0.000116666666667 0.000590625 0.708876
359 1 -0.031303125 0.000116666666667 0.001771875 0.649454
360 1 -0.031303125 0.000116666666667 0.002953125 0.710489
361 1 -0.031303125 0.000116666666667 0.004134375 0.645207
362 1 -0.031303125 0.000116666666667 0.005315625 0.709688
363 1 -0.031303125 0.000116666666667 0.006496875 0.633918
364 1 -0.031303125 0.000116666666667 0.007678125 0.69931
365 1 -0.031303125 0.000116666666667 0.008859375 0.610423
366 1 -0.031303125 0.000116666666667 0.010040625 0.662076
367 1 -0.031303125 0.000116666666667 0.011221875 0.554223
368 1 -0.031303125 0.000116666666667 0.012403125 0.578582
369 1 -0.031303125 0.000116666666667 0.013584375 0.463836
370 1 -0.031303125 0.000116666666667 0.014765625 0.437586
371 1 -0.031303125 0.000116666666667 0.015946875 0.34953
372 1 -0.031303125 0.000116666666667 0.017128125 0.278902
373 1 -0.031303125 0.000116666666667 0.018309375 0.237512
374 1 -0.031303125 0.000116666666667 0.019490625 0.158803
375 1 -0.030121875 -0.00261666666667 -0.020671875 0.145583
376 1 -0.030121875 -0.00261666666667 -0.019490625 0.248773
377 1 -0.030121875 -0.00261666666667 -0.018309375 0.323794
378 1 -0.030121875 -0.00261666666667 -0.017128125 0.42287
379 1 -0.030121875 -0.00261666666667 -0.015946875 0.517491
380 1 -0.030121875 -0.00261666666667 -0.014765625 0.53836
381 1 -0.030121875 -0.00261666666667 -0.013584375 0.65155
382 1 -0.030121875 -0.00261666666667 -0.012403125 0.608164
383 1 -0.030121875 -0.00261666666667 -0.011221875 0.714533
384 1 -0.030121875 -0.00261666666667 -0.010040625 0.632408
385 1 -0.030121875 -0.00261666666667 -0.008859375 0.736371
386 1 -0.030121875 -0.00261666666667 -0.007678125 0.638642
387 1 -0.030121875 -0.00261666666667 -0.006496875 0.735253
388 1 -0.030121875 -0.00261666666667 -0.005315625 0.630077
389 1 -0.030121875 -0.00261666666667 -0.004134375 0.727008
390 1 -0.030121875 -0.00261666666667 -0.002953125 0.619004
391 1 -0.030121875 -0.00261666666667 -0.001771875 0.717292
392 1 -0.030121875 -0.00261666666667 -0.000590625 0.612416
393 1 -0.030121875 -0.00261666666667 0.000590625 0.71229
394 1 -0.030121875 -0.00261666666667 0.001771875 0.608873
395 1 -0.030121875 -0.00261666666667 0.002953125 0.715544
396 1 -0.030121875 -0.00261666666667 0.004134375 0.603444
397 1 -0.030121875 -0.00261666666667 0.005315625 0.727493
398 1 -0.030121875 -0.00261666666667 0.006496875 0.599166
399 1 -0.030121875 -0.00261666666667 0.007678125 0.731583
400 1 -0.030121875 -0.00261666666667 0.008859375 0.575188
401 1 -0.030121875 -0.00261666666667 0.010040625 0.721281
402 1 -0.030121875 -0.00261666666667 0.011221875 0.52964
403 1 -0.030121875 -0.00261666666667 0.012403125 0.680333
404 1 -0.030121875 -0.00261666666667 0.013584375 0.446061
405 1 -0.030121875 -0.00261666666667 0.014765625 0.585806
406 1 -0.030121875 -0.00261666666667 0.015946875 0.338978
407 1 -0.030121875 -0.00261666666667 0.017128125 0.416356
408 1 -0.030121875 -0.00261666666667 0.018309375 0.21616
409 1 -0.030121875 -0.00261666666667 0.019490625 0.243958
410 1 -0.030121875 -0.00261666666667 0.020671875 0.135942
411 1 -0.030121875 -0.00125 -0.020671875 0.145583
412 1 -0.030121875 -0.00125 -0.019490625 0.248773
413 1 -0.030121875 -0.00125 -0.018309375 0.323794
414 1 -0.030121875 -0.00125 -0.017128125 0.42287
415 1 -0.030121875 -0.00125 -0.015946875 0.517491
416 1 -0.030121875 -0.00125 -0.014765625 0.53836
417 1 -0.030121875 -0.00125 -0.013584375 0.65155
418 1 -0.030121875 -0.00125 -0.012403125 0.608164
419 1 -0.030121875 -0.00125 -0.011221875 0.714533
420 1 -0.030121875 -0.00125 -0.010040625 0.632408
421 1 -0.030121875 -0.00125 -0.008859375 0.736371
422 1 -0.030121875 -0.00125 -0.007678125 0.638642
423 1 -0.030121875 -0.00125 -0.006496875 0.735253
424 1 -0.030121875 -0.00125 -0.005315625 0.630077
425 1 -0.030121875 -0.00125 -0.004134375 0.727008
426 1 -0.030121875 -0.00125 -0.002953125 0.619004
427 1 -0.030121875 -0.00125 -0.001771875 0.717292
428 1 -0.030121875 -0.00125 -0.000590625 0.612416
429 1 -0.030121875 -0.00125 0.000590625 0.71229
430 1 -0.030121875 -0.00125 0.001771875 0.608873
431 1 -0.030121875 -0.00125 0.002953125 0.715544
432 1 -0.030121875 -0.00125 0.004134375 0.603444
433 1 -0.030121875 -0.00125 0.005315625 0.727493
434 1 -0.030121875 -0.00125 0.006496875 0.599166
435 1 -0.030121875 -0.00125 0.007678125 0.731583
436 1 -0.030121875 -0.00125 0.008859375 0.575188
437 1 -0.030121875 -0.00125 0.010040625 0.721281
438 1 -0.030121875 -0.00125 0.011221875 0.52964
439 1 -0.030121875 -0.00125 0.012403125 0.680333
440 1 -0.030121875 -0.00125 0.013584375 0.446061
441 1 -0.030121875 -0.00125 0.014765625 0.585806
442 1 -0.030121875 -0.00125 0.015946875 0.338978
443 1 -0.030121875 -0.00125 0.017128125 0.416356
444 1 -0.030121875 -0.00125 0.018309375 0.21616
445 1 -0.030121875 -0.00125 0.019490625 0.243958
446 1 -0.030121875 -0.00125 0.020671875 0.135942
447 1 -0.030121875 0.000116666666667 -0.020671875 0.145583
448 1 -0.030121875 0.000116666666667 -0.019490625 0.248773
449 1 -0.030121875 0.000116666666667 -0.018309375 0.323794
450 1 -0.030121875 0.000116666666667 -0.017128125 0.42287
451 1 -0.030121875 0.000116666666667 -0.015946875 0.517491
452 1 -0.030121875 0.000116666666667 -0.014765625 0.53836
453 1 -0.030121875 0.000116666666667 -0.013584375 0.65155
454 1 -0.030121875 0.000116666666667 -0.012403125 0.608164
455 1 -0.030121875 0.000116666666667 -0.011221875 0.714533
456 1 -0.030121875 0.000116666666667 -0.010040625 0.632408
457 1 -0.030121875 0.000116666666667 -0.008859375 0.736371
458 1 -0.030121875 0.000116666666667 -0.007678125 0.638642
459 1 -0.030121875 0.000116666666667 -0.006496875 0.735253
460 1 -0.030121875 0.000116666666667 -0.005315625 0.630077
461 1 -0.030121875 0.000116666666667 -0.004134375 0.727008
462 1 -0.030121875 0.000116666666667 -0.002953125 0.619004
463 1 -0.030121875 0.000116666666667 -0.001771875 0.717292
464 1 -0.030121875 0.000116666666667 -0.000590625 0.612416
465 1 -0.030121875 0.000116666666667 0.000590625 0.71229
466 1 -0.030121875 0.000116666666667 0.001771875 0.608873
467 1 -0.030121875 0.000116666666667 0.002953125 0.715544
468 1 -0.030121875 0.000116666666667 0.004134375 0.603444
469 1 -0.030121875 0.000116666666667 0.005315625 0.727493
470 1 -0.030121875 0.000116666666667 0.006496875 0.599166
471 1 -0.030121875 0.000116666666667 0.007678125 0.731583
472 1 -0.030121875 0.000116666666667 0.008859375 0.575188
473 1 -0.030121875 0.000116666666667 0.010040625 0.721281
474 1 -0.030121875 0.000116666666667 0.011221875 0.52964
475 1 -0.030121875 0.000116666666667 0.012403125 0.680333
476 1 -0.030121875 0.000116666666667 0.013584375 0.446061
477 1 -0.030121875 0.000116666666667 0.014765625 0.585806
478 1 -0.030121875 0.000116666666667 0.015946875 0.338978
479 1 -0.030121875 0.000116666666667 0.017128125 0.416356
480 1 -0.030121875 0.000116666666667 0.018309375 0.21616
481 1 -0.030121875 0.000116666666667 0.019490625 0.243958
482 1 -0.030121875 0.000116666666667 0.020671875 0.135942
483 1 -0.028940625 -0.00261666666667 -0.021853125 0.254513
484 1 -0.028940625 -0.00261666666667 -0.020671875 0.22456
485 1 -0.028940625 -0.00261666666667 -0.019490625 0.420434
486 1 -0.028940625 -0.00261666666667 -0.018309375 0.443855
487 1 -0.028940625 -0.00261666666667 -0.017128125 0.568319
488 1 -0.028940625 -0.00261666666667 -0.015946875 0.623531
489 1 -0.028940625 -0.00261666666667 -0.014765625 0.645179
490 1 -0.028940625 -0.00261666666667 -0.013584375 0.690145
491 1 -0.028940625 -0.00261666666667 -0.012403125 0.676118
492 1 -0.028940625 -0.00261666666667 -0.011221875 0.710624
493 1 -0.028940625 -0.00261666666667 -0.010040625 0.688237
494 1 -0.028940625 -0.00261666666667 -0.008859375 0.712923
495 1 -0.028940625 -0.00261666666667 -0.007678125 0.686182
496 1 -0.028940625 -0.00261666666667 -0.006496875 0.709266
497 1 -0.028940625 -0.00261666666667 -0.005315625 0.681044
498 1 -0.028940625 -0.00261666666667 -0.004134375 0.699807
499 1 -0.028940625 -0.00261666666667 -0.002953125 0.672162
500 1 -0.028940625 -0.00261666666667 -0.001771875 0.693619
501 1 -0.028940625 -0.00261666666667 -0.000590625 0.66984
502 1 -0.028940625 -0.00261666666667 0.000590625 0.691199
503 1 -0.028940625 -0.00261666666667 0.001771875 0.66738
504 1 -0.028940625 -0.00261666666667 0.002953125 0.696552
505 1 -0.028940625 -0.00261666666667 0.004134375 0.668781
506 1 -0.028940625 -0.00261666666667 0.005315625 0.701313
507 1 -0.028940625 -0.00261666666667 0.006496875 0.664505
508 1 -0.028940625 -0.00261666666667 0.007678125 0.70632
509 1 -0.028940625 -0.00261666666667 0.008859375 0.654679
510 1 -0.028940625 -0.00261666666667 0.010040625 0.70661
511 1 -0.028940625 -0.00261666666667 0.011221875 0.633236
512 1 -0.028940625 -0.00261666666667 0.012403125 0.70048
513 1 -0.028940625 -0.00261666666667 0.013584375 0.59693
514 1 -0.028940625 -0.00261666666667 0.014765625 0.656621
515 1 -0.028940625 -0.00261666666667 0.015946875 0.526262
516 1 -0.028940625 -0.00261666666667 0.017128125 0.546799
517 1 -0.028940625 -0.00261666666667 0.018309375 0.408135
518 1 -0.028940625 -0.00261666666667 0.019490625 0.379372
519 1 -0.028940625 -0.00261666666667 0.020671875 0.296131
520 1 -0.028940625 -0.00261666666667 0.021853125 0.238973
521 1 -0.028940625 -0.00125 -0.021853125 0.254513
522 1 -0.028940625 -0.00125 -0.020671875 0.22456
523 1 -0.028940625 -0.00125 -0.019490625 0.420434
524 1 -0.028940625 -0.00125 -0.018309375 0.443855
525 1 -0.028940625 -0.00125 -0.017128125 0.568319
526 1 -0.028940625 -0.00125 -0.015946875 0.623531
527 1 -0.028940625 -0.00125 -0.014765625 0.645179
528 1 -0.028940625 -0.00125 -0.013584375 0.690145
529 1 -0.028940625 -0.00125 -0.012403125 0.676118
530 1 -0.028940625 -0.00125 -0.011221875 0.710624
531 1 -0.028940625 -0.00125 -0.010040625 0.688237
532 1 -0.028940625 -0.00125 -0.008859375 0.712923
533 1 -0.028940625 -0.00125 -0.007678125 0.686182
534 1 -0.028940625 -0.00125 -0.006496875 0.709266
535 1 -0.028940625 -0.00125 -0.005315625 0.681044
536 1 -0.028940625 -0.00125 -0.004134375 0.699807
537 1 -0.028940625 -0.00125 -0.002953125 0.672162