ITEM: TIMESTEP
0
ITEM: NUMBER OF ATOMS
9240
ITEM: BOX BOUNDS ss ss ss
-3.7007399999999996e-02 3.7007399999999996e-02
-2.0002499999999999e-03 2.5000000000000004e-07
-3.7007399999999996e-02 3.7007399999999996e-02
ITEM: ATOMS id type x y z c_1
0 1 -0.037209375 -0.00261666666667 -0.000590625 0.344196
1 1 -0.037209375 -0.00125 -0.000590625 0.344196
2 1 -0.037209375 0.000116666666667 -0.000590625 0.344196
3 1 -0.036028125 -0.00261666666667 -0.007678125 0.370419
4 1 -0.036028125 -0.00261666666667 -0.006496875 0.285345
5 1 -0.036028125 -0.00261666666667 -0.005315625 0.387937
6 1 -0.036028125 -0.00261666666667 -0.004134375 0.304695
7 1 -0.036028125 -0.00261666666667 -0.002953125 0.401563
8 1 -0.036028125 -0.00261666666667 -0.001771875 0.320675
9 1 -0.036028125 -0.00261666666667 -0.000590625 0.412812
10 1 -0.036028125 -0.00261666666667 0.000590625 0.32869
11 1 -0.036028125 -0.00261666666667 0.001771875 0.41542
12 1 -0.036028125 -0.00261666666667 0.002953125 0.323084
13 1 -0.036028125 -0.00261666666667 0.004134375 0.403163
14 1 -0.036028125 -0.00261666666667 0.005315625 0.300987
15 1 -0.036028125 -0.00261666666667 0.006496875 0.377071
16 1 -0.036028125 -0.00261666666667 0.007678125 0.267974
17 1 -0.036028125 -0.00125 -0.007678125 0.370419
18 1 -0.036028125 -0.00125 -0.006496875 0.285345
19 1 -0.036028125 -0.00125 -0.005315625 0.387937
20 1 -0.036028125 -0.00125 -0.004134375 0.304695
21 1 -0.036028125 -0.00125 -0.002953125 0.401563
22 1 -0.036028125 -0.00125 -0.001771875 0.320675
23 1 -0.036028125 -0.00125 -0.000590625 0.412812
24 1 -0.036028125 -0.00125 0.000590625 0.32869
25 1 -0.036028125 -0.00125 0.001771875 0.41542
26 1 -0.036028125 -0.00125 0.002953125 0.323084
27 1 -0.036028125 -0.00125 0.004134375 0.403163
28 1 -0.036028125 -0.00125 0.005315625 0.300987
29 1 -0.036028125 -0.00125 0.006496875 0.377071
30 1 -0.036028125 -0.00125 0.007678125 0.267974
31 1 -0.036028125 0.000116666666667 -0.007678125 0.370419
32 1 -0.036028125 0.000116666666667 -0.006496875 0.285345
33 1 -0.036028125 0.000116666666667 -0.005315625 0.387937
34 1 -0.036028125 0.000116666666667 -0.004134375 0.304695
35 1 -0.036028125 0.000116666666667 -0.002953125 0.401563
36 1 -0.036028125 0.000116666666667 -0.001771875 0.320675
37 1 -0.036028125 0.000116666666667 -0.000590625 0.412812
38 1 -0.036028125 0.000116666666667 0.000590625 0.32869
39 1 -0.036028125 0.000116666666667 0.001771875 0.41542
40 1 -0.036028125 0.000116666666667 0.002953125 0.323084
41 1 -0.036028125 0.000116666666667 0.004134375 0.403163
42 1 -0.036028125 0.000116666666667 0.005315625 0.300987
43 1 -0.036028125 0.000116666666667 0.006496875 0.377071
44 1 -0.036028125 0.000116666666667 0.007678125 0.267974
45 1 -0.034846875 -0.00261666666667 -0.011221875 0.224409
46 1 -0.034846875 -0.00261666666667 -0.010040625 0.258878
47 1 -0.034846875 -0.00261666666667 -0.008859375 0.258049
48 1 -0.034846875 -0.00261666666667 -0.007678125 0.278741
49 1 -0.034846875 -0.00261666666667 -0.006496875 0.287275
50 1 -0.034846875 -0.00261666666667 -0.005315625 0.293841
51 1 -0.034846875 -0.00261666666667 -0.004134375 0.313996
52 1 -0.034846875 -0.00261666666667 -0.002953125 0.307147
53 1 -0.034846875 -0.00261666666667 -0.001771875 0.337141
54 1 -0.034846875 -0.00261666666667 -0.000590625 0.316283
55 1 -0.034846875 -0.00261666666667 0.000590625 0.353957
56 1 -0.034846875 -0.00261666666667 0.001771875 0.318228
57 1 -0.034846875 -0.00261666666667 0.002953125 0.352889
58 1 -0.034846875 -0.00261666666667 0.004134375 0.301679
59 1 -0.034846875 -0.00261666666667 0.005315625 0.330485
60 1 -0.034846875 -0.00261666666667 0.006496875 0.274178
61 1 -0.034846875 -0.00261666666667 0.007678125 0.29012
62 1 -0.034846875 -0.00261666666667 0.008859375 0.237568
63 1 -0.034846875 -0.00261666666667 0.010040625 0.241549
64 1 -0.034846875 -0.00261666666667 0.011221875 0.201583
65 1 -0.034846875 -0.00125 -0.011221875 0.224409
66 1 -0.034846875 -0.00125 -0.010040625 0.258878
67 1 -0.034846875 -0.00125 -0.008859375 0.258049
68 1 -0.034846875 -0.00125 -0.007678125 0.278741
69 1 -0.034846875 -0.00125 -0.006496875 0.287275
70 1 -0.034846875 -0.00125 -0.005315625 0.293841
71 1 -0.034846875 -0.00125 -0.004134375 0.313996
72 1 -0.034846875 -0.00125 -0.002953125 0.307147
73 1 -0.034846875 -0.00125 -0.001771875 0.337141
74 1 -0.034846875 -0.00125 -0.000590625 0.316283
75 1 -0.034846875 -0.00125 0.000590625 0.353957
76 1 -0.034846875 -0.00125 0.001771875 0.318228
77 1 -0.034846875 -0.00125 0.002953125 0.352889
78 1 -0.034846875 -0.00125 0.004134375 0.301679
79 1 -0.034846875 -0.00125 0.005315625 0.330485
80 1 -0.034846875 -0.00125 0.006496875 0.274178
81 1 -0.034846875 -0.00125 0.007678125 0.29012
82 1 -0.034846875 -0.00125 0.008859375 0.237568
83 1 -0.034846875 -0.00125 0.010040625 0.241549
84 1 -0.034846875 -0.00125 0.011221875 0.201583
85 1 -0.034846875 0.000116666666667 -0.011221875 0.224409
86 1 -0.034846875 0.000116666666667 -0.010040625 0.258878
87 1 -0.034846875 0.000116666666667 -0.008859375 0.258049
88 1 -0.034846875 0.000116666666667 -0.007678125 0.278741
89 1 -0.034846875 0.000116666666667 -0.006496875 0.287275
90 1 -0.034846875 0.000116666666667 -0.005315625 0.293841
91 1 -0.034846875 0.000116666666667 -0.004134375 0.313996
92 1 -0.034846875 0.000116666666667 -0.002953125 0.307147
93 1 -0.034846875 0.000116666666667 -0.001771875 0.337141
94 1 -0.034846875 0.000116666666667 -0.000590625 0.316283
95 1 -0.034846875 0.000116666666667 0.000590625 0.353957
96 1 -0.034846875 0.000116666666667 0.001771875 0.318228
97 1 -0.034846875 0.000116666666667 0.002953125 0.352889
98 1 -0.034846875 0.000116666666667 0.004134375 0.301679
99 1 -0.034846875 0.000116666666667 0.005315625 0.330485
100 1 -0.034846875 0.000116666666667 0.006496875 0.274178
101 1 -0.034846875 0.000116666666667 0.007678125 0.29012
102 1 -0.034846875 0.000116666666667 0.008859375 0.237568
103 1 -0.034846875 0.000116666666667 0.010040625 0.241549
104 1 -0.034846875 0.000116666666667 0.011221875 0.201583
105 1 -0.033665625 -0.00261666666667 -0.013584375 0.248335
106 1 -0.033665625 -0.00261666666667 -0.012403125 0.366582
107 1 -0.033665625 -0.00261666666667 -0.011221875 0.30444
108 1 -0.033665625 -0.00261666666667 -0.010040625 0.410218
109 1 -0.033665625 -0.00261666666667 -0.008859375 0.350833
110 1 -0.033665625 -0.00261666666667 -0.007678125 0.440635
111 1 -0.033665625 -0.00261666666667 -0.006496875 0.387423
112 1 -0.033665625 -0.00261666666667 -0.005315625 0.466123
113 1 -0.033665625 -0.00261666666667 -0.004134375 0.415885
114 1 -0.033665625 -0.00261666666667 -0.002953125 0.484738
115 1 -0.033665625 -0.00261666666667 -0.001771875 0.43931
116 1 -0.033665625 -0.00261666666667 -0.000590625 0.499451
117 1 -0.033665625 -0.00261666666667 0.000590625 0.451942
118 1 -0.033665625 -0.00261666666667 0.001771875 0.50357
119 1 -0.033665625 -0.00261666666667 0.002953125 0.446425
120 1 -0.033665625 -0.00261666666667 0.004134375 0.488942
121 1 -0.033665625 -0.00261666666667 0.005315625 0.415528
122 1 -0.033665625 -0.00261666666667 0.006496875 0.454067
123 1 -0.033665625 -0.00261666666667 0.007678125 0.363312
124 1 -0.033665625 -0.00261666666667 0.008859375 0.404838
125 1 -0.033665625 -0.00261666666667 0.010040625 0.29707
126 1 -0.033665625 -0.00261666666667 0.011221875 0.345044
127 1 -0.033665625 -0.00261666666667 0.012403125 0.228713
128 1 -0.033665625 -0.00261666666667 0.013584375 0.284748
129 1 -0.033665625 -0.00125 -0.013584375 0.248335
130 1 -0.033665625 -0.00125 -0.012403125 0.366582
131 1 -0.033665625 -0.00125 -0.011221875 0.30444
132 1 -0.033665625 -0.00125 -0.010040625 0.410218
133 1 -0.033665625 -0.00125 -0.008859375 0.350833
134 1 -0.033665625 -0.00125 -0.007678125 0.440635
135 1 -0.033665625 -0.00125 -0.006496875 0.387423
136 1 -0.033665625 -0.00125 -0.005315625 0.466123
137 1 -0.033665625 -0.00125 -0.004134375 0.415885
138 1 -0.033665625 -0.00125 -0.002953125 0.484738
139 1 -0.033665625 -0.00125 -0.001771875 0.43931
140 1 -0.033665625 -0.00125 -0.000590625 0.499451
141 1 -0.033665625 -0.00125 0.000590625 0.451942
142 1 -0.033665625 -0.00125 0.001771875 0.50357
143 1 -0.033665625 -0.00125 0.002953125 0.446425
144 1 -0.033665625 -0.00125 0.004134375 0.488942
145 1 -0.033665625 -0.00125 0.005315625 0.415528
146 1 -0.033665625 -0.00125 0.006496875 0.454067
147 1 -0.033665625 -0.00125 0.007678125 0.363312
148 1 -0.033665625 -0.00125 0.008859375 0.404838
149 1 -0.033665625 -0.00125 0.010040625 0.29707
150 1 -0.033665625 -0.00125 0.011221875 0.345044
151 1 -0.033665625 -0.00125 0.012403125 0.228713
152 1 -0.033665625 -0.00125 0.013584375 0.284748
153 1 -0.033665625 0.000116666666667 -0.013584375 0.248335
154 1 -0.033665625 0.000116666666667 -0.012403125 0.366582
155 1 -0.033665625 0.000116666666667 -0.011221875 0.30444
156 1 -0.033665625 0.000116666666667 -0.010040625 0.410218
157 1 -0.033665625 0.000116666666667 -0.008859375 0.350833
158 1 -0.033665625 0.000116666666667 -0.007678125 0.440635
159 1 -0.033665625 0.000116666666667 -0.006496875 0.387423
160 1 -0.033665625 0.000116666666667 -0.005315625 0.466123
161 1 -0.033665625 0.000116666666667 -0.004134375 0.415885
162 1 -0.033665625 0.000116666666667 -0.002953125 0.484738
163 1 -0.033665625 0.000116666666667 -0.001771875 0.43931
164 1 -0.033665625 0.000116666666667 -0.000590625 0.499451
165 1 -0.033665625 0.000116666666667 0.000590625 0.451942
166 1 -0.033665625 0.000116666666667 0.001771875 0.50357
167 1 -0.033665625 0.000116666666667 0.002953125 0.446425
168 1 -0.033665625 0.000116666666667 0.004134375 0.488942
169 1 -0.033665625 0.000116666666667 0.005315625 0.415528
170 1 -0.033665625 0.000116666666667 0.006496875 0.454067
171 1 -0.033665625 0.000116666666667 0.007678125 0.363312
172 1 -0.033665625 0.000116666666667 0.008859375 0.404838
173 1 -0.033665625 0.000116666666667 0.010040625 0.29707
174 1 -0.033665625 0.000116666666667 0.011221875 0.345044
175 1 -0.033665625 0.000116666666667 0.012403125 0.228713
176 1 -0.033665625 0.000116666666667 0.013584375 0.284748
177 1 -0.032484375 -0.00261666666667 -0.018309375 0.14083
178 1 -0.032484375 -0.00261666666667 -0.017128125 0.209778
179 1 -0.032484375 -0.00261666666667 -0.015946875 0.19704
180 1 -0.032484375 -0.00261666666667 -0.014765625 0.263544
181 1 -0.032484375 -0.00261666666667 -0.013584375 0.264023
182 1 -0.032484375 -0.00261666666667 -0.012403125 0.315363
183 1 -0.032484375 -0.00261666666667 -0.011221875 0.328712
184 1 -0.032484375 -0.00261666666667 -0.010040625 0.354685
185 1 -0.032484375 -0.00261666666667 -0.008859375 0.379012
186 1 -0.032484375 -0.00261666666667 -0.007678125 0.383177
187 1 -0.032484375 -0.00261666666667 -0.006496875 0.413596
188 1 -0.032484375 -0.00261666666667 -0.005315625 0.403264
189 1 -0.032484375 -0.00261666666667 -0.004134375 0.443385
190 1 -0.032484375 -0.00261666666667 -0.002953125 0.418166
191 1 -0.032484375 -0.00261666666667 -0.001771875 0.468726
192 1 -0.032484375 -0.00261666666667 -0.000590625 0.42828
193 1 -0.032484375 -0.00261666666667 0.000590625 0.487628
194 1 -0.032484375 -0.00261666666667 0.001771875 0.431364
195 1 -0.032484375 -0.00261666666667 0.002953125 0.489173
196 1 -0.032484375 -0.00261666666667 0.004134375 0.411947
197 1 -0.032484375 -0.00261666666667 0.005315625 0.469358
198 1 -0.032484375 -0.00261666666667 0.006496875 0.376484
199 1 -0.032484375 -0.00261666666667 0.007678125 0.422859
200 1 -0.032484375 -0.00261666666667 0.008859375 0.321826
201 1 -0.032484375 -0.00261666666667 0.010040625 0.354685
202 1 -0.032484375 -0.00261666666667 0.011221875 0.262126
203 1 -0.032484375 -0.00261666666667 0.012403125 0.271282
204 1 -0.032484375 -0.00261666666667 0.013584375 0.203789
205 1 -0.032484375 -0.00261666666667 0.014765625 0.194344
206 1 -0.032484375 -0.00261666666667 0.015946875 0.155357
207 1 -0.032484375 -0.00261666666667 0.017128125 0.138052
208 1 -0.032484375 -0.00261666666667 0.018309375 0.121733
209 1 -0.032484375 -0.00125 -0.018309375 0.14083
210 1 -0.032484375 -0.00125 -0.017128125 0.209778
211 1 -0.032484375 -0.00125 -0.015946875 0.19704
212 1 -0.032484375 -0.00125 -0.014765625 0.263544
213 1 -0.032484375 -0.00125 -0.013584375 0.264023
214 1 -0.032484375 -0.00125 -0.012403125 0.315363
215 1 -0.032484375 -0.00125 -0.011221875 0.328712
216 1 -0.032484375 -0.00125 -0.010040625 0.354685
217 1 -0.032484375 -0.00125 -0.008859375 0.379012
218 1 -0.032484375 -0.00125 -0.007678125 0.383177
219 1 -0.032484375 -0.00125 -0.006496875 0.413596
220 1 -0.032484375 -0.00125 -0.005315625 0.403264
221 1 -0.032484375 -0.00125 -0.004134375 0.443385
222 1 -0.032484375 -0.00125 -0.002953125 0.418166
223 1 -0.032484375 -0.00125 -0.001771875 0.468726
224 1 -0.032484375 -0.00125 -0.000590625 0.42828
225 1 -0.032484375 -0.00125 0.000590625 0.487628
226 1 -0.032484375 -0.00125 0.001771875 0.431364
227 1 -0.032484375 -0.00125 0.002953125 0.489173
228 1 -0.032484375 -0.00125 0.004134375 0.411947
229 1 -0.032484375 -0.00125 0.005315625 0.469358
230 1 -0.032484375 -0.00125 0.006496875 0.376484
231 1 -0.032484375 -0.00125 0.007678125 0.422859
232 1 -0.032484375 -0.00125 0.008859375 0.321826
233 1 -0.032484375 -0.00125 0.010040625 0.354685
234 1 -0.032484375 -0.00125 0.011221875 0.262126
235 1 -0.032484375 -0.00125 0.012403125 0.271282
236 1 -0.032484375 -0.00125 0.013584375 0.203789
237 1 -0.032484375 -0.00125 0.014765625 0.194344
238 1 -0.032484375 -0.00125 0.015946875 0.155357
239 1 -0.032484375 -0.00125 0.017128125 0.138052
240 1 -0.032484375 -0.00125 0.018309375 0.121733
241 1 -0.032484375 0.000116666666667 -0.018309375 0.14083
242 1 -0.032484375 0.000116666666667 -0.017128125 0.209778
243 1 -0.032484375 0.000116666666667 -0.015946875 0.19704
244 1 -0.032484375 0.000116666666667 -0.014765625 0.263544
245 1 -0.032484375 0.000116666666667 -0.013584375 0.264023
246 1 -0.032484375 0.000116666666667 -0.012403125 0.315363
247 1 -0.032484375 0.000116666666667 -0.011221875 0.328712
248 1 -0.032484375 0.000116666666667 -0.010040625 0.354685
249 1 -0.032484375 0.000116666666667 -0.008859375 0.379012
250 1 -0.032484375 0.000116666666667 -0.007678125 0.383177
251 1 -0.032484375 0.000116666666667 -0.006496875 0.413596
252 1 -0.032484375 0.000116666666667 -0.005315625 0.403264
253 1 -0.032484375 0.000116666666667 -0.004134375 0.443385
254 1 -0.032484375 0.000116666666667 -0.002953125 0.418166
255 1 -0.032484375 0.000116666666667 -0.001771875 0.468726
256 1 -0.032484375 0.000116666666667 -0.000590625 0.42828
257 1 -0.032484375 0.000116666666667 0.000590625 0.487628
258 1 -0.032484375 0.000116666666667 0.001771875 0.431364
259 1 -0.032484375 0.000116666666667 0.002953125 0.489173
260 1 -0.032484375 0.000116666666667 0.004134375 0.411947
261 1 -0.032484375 0.000116666666667 0.005315625 0.469358
262 1 -0.032484375 0.000116666666667 0.006496875 0.376484
263 1 -0.032484375 0.000116666666667 0.007678125 0.422859
264 1 -0.032484375 0.000116666666667 0.008859375 0.321826
265 1 -0.032484375 0.000116666666667 0.010040625 0.354685
266 1 -0.032484375 0.000116666666667 0.011221875 0.262126
267 1 -0.032484375 0.000116666666667 0.012403125 0.271282
268 1 -0.032484375 0.000116666666667 0.013584375 0.203789
269 1 -0.032484375 0.000116666666667 0.014765625 0.194344
270 1 -0.032484375 0.000116666666667 0.015946875 0.155357
271 1 -0.032484375 0.000116666666667 0.017128125 0.138052
272 1 -0.032484375 0.000116666666667 0.018309375 0.121733
273 1 -0.031303125 -0.00261666666667 -0.019490625 0.273556
274 1 -0.031303125 -0.00261666666667 -0.018309375 0.235495
275 1 -0.031303125 -0.00261666666667 -0.017128125 0.343756
276 1 -0.031303125 -0.00261666666667 -0.015946875 0.325943
277 1 -0.031303125 -0.00261666666667 -0.014765625 0.417381
278 1 -0.031303125 -0.00261666666667 -0.013584375 0.409737
279 1 -0.031303125 -0.00261666666667 -0.012403125 0.474145
280 1 -0.031303125 -0.00261666666667 -0.011221875 0.475853
281 1 -0.031303125 -0.00261666666667 -0.010040625 0.516552
282 1 -0.031303125 -0.00261666666667 -0.008859375 0.51585
283 1 -0.031303125 -0.00261666666667 -0.007678125 0.543813
284 1 -0.031303125 -0.00261666666667 -0.006496875 0.543173
285 1 -0.031303125 -0.00261666666667 -0.005315625 0.565352
286 1 -0.031303125 -0.00261666666667 -0.004134375 0.561229
287 1 -0.031303125 -0.00261666666667 -0.002953125 0.580182
288 1 -0.031303125 -0.00261666666667 -0.001771875 0.575953
289 1 -0.031303125 -0.00261666666667 -0.000590625 0.592754
290 1 -0.031303125 -0.00261666666667 0.000590625 0.586001
291 1 -0.031303125 -0.00261666666667 0.001771875 0.597315
292 1 -0.031303125 -0.00261666666667 0.002953125 0.587685
293 1 -0.031303125 -0.00261666666667 0.004134375 0.587009
294 1 -0.031303125 -0.00261666666667 0.005315625 0.574872
295 1 -0.031303125 -0.00261666666667 0.006496875 0.562059
296 1 -0.031303125 -0.00261666666667 0.007678125 0.542238
297 1 -0.031303125 -0.00261666666667 0.008859375 0.51835
298 1 -0.031303125 -0.00261666666667 0.010040625 0.473444
299 1 -0.031303125 -0.00261666666667 0.011221875 0.454668
300 1 -0.031303125 -0.00261666666667 0.012403125 0.380135
301 1 -0.031303125 -0.00261666666667 0.013584375 0.376928
302 1 -0.031303125 -0.00261666666667 0.014765625 0.28192
303 1 -0.031303125 -0.00261666666667 0.015946875 0.300721
304 1 -0.031303125 -0.00261666666667 0.017128125 0.200889
305 1 -0.031303125 -0.00261666666667 0.018309375 0.239474
306 1 -0.031303125 -0.00261666666667 0.019490625 0.146521
307 1 -0.031303125 -0.00125 -0.019490625 0.273556
308 1 -0.031303125 -0.00125 -0.018309375 0.235495
309 1 -0.031303125 -0.00125 -0.017128125 0.343756
310 1 -0.031303125 -0.00125 -0.015946875 0.325943
311 1 -0.031303125 -0.00125 -0.014765625 0.417381
312 1 -0.031303125 -0.00125 -0.013584375 0.409737
313 1 -0.031303125 -0.00125 -0.012403125 0.474145
314 1 -0.031303125 -0.00125 -0.011221875 0.475853
315 1 -0.031303125 -0.00125 -0.010040625 0.516552
316 1 -0.031303125 -0.00125 -0.008859375 0.51585
317 1 -0.031303125 -0.00125 -0.007678125 0.543813
318 1 -0.031303125 -0.00125 -0.006496875 0.543173
319 1 -0.031303125 -0.00125 -0.005315625 0.565352
320 1 -0.031303125 -0.00125 -0.004134375 0.561229
321 1 -0.031303125 -0.00125 -0.002953125 0.580182
322 1 -0.031303125 -0.00125 -0.001771875 0.575953
323 1 -0.031303125 -0.00125 -0.000590625 0.592754
324 1 -0.031303125 -0.00125 0.000590625 0.586001
325 1 -0.031303125 -0.00125 0.001771875 0.597315
326 1 -0.031303125 -0.00125 0.002953125 0.587685
327 1 -0.031303125 -0.00125 0.004134375 0.587009
328 1 -0.031303125 -0.00125 0.005315625 0.574872
329 1 -0.031303125 -0.00125 0.006496875 0.562059
330 1 -0.031303125 -0.00125 0.007678125 0.542238
331 1 -0.031303125 -0.00125 0.008859375 0.51835
332 1 -0.031303125 -0.00125 0.010040625 0.473444
333 1 -0.031303125 -0.00125 0.011221875 0.454668
334 1 -0.031303125 -0.00125 0.012403125 0.380135
335 1 -0.031303125 -0.00125 0.013584375 0.376928
336 1 -0.031303125 -0.00125 0.014765625 0.28192
337 1 -0.031303125 -0.00125 0.015946875 0.300721
338 1 -0.031303125 -0.00125 0.017128125 0.200889
339 1 -0.031303125 -0.00125 0.018309375 0.239474
340 1 -0.031303125 -0.00125 0.019490625 0.146521
341 1 -0.031303125 0.000116666666667 -0.019490625 0.273556
342 1 -0.031303125 0.000116666666667 -0.018309375 0.235495
343 1 -0.031303125 0.000116666666667 -0.017128125 0.343756
344 1 -0.031303125 0.000116666666667 -0.015946875 0.325943
345 1 -0.031303125 0.000116666666667 -0.014765625 0.417381
346 1 -0.031303125 0.000116666666667 -0.013584375 0.409737
347 1 -0.031303125 0.000116666666667 -0.012403125 0.474145
348 1 -0.031303125 0.000116666666667 -0.011221875 0.475853
349 1 -0.031303125 0.000116666666667 -0.010040625 0.516552
350 1 -0.031303125 0.000116666666667 -0.008859375 0.51585
351 1 -0.031303125 0.000116666666667 -0.007678125 0.543813
352 1 -0.031303125 0.000116666666667 -0.006496875 0.543173
353 1 -0.031303125 0.000116666666667 -0.005315625 0.565352
354 1 -0.031303125 0.000116666666667 -0.004134375 0.561229
355 1 -0.031303125 0.000116666666667 -0.002953125 0.580182
356 1 -0.031303125 0.000116666666667 -0.001771875 0.575953
357 1 -0.031303125 0.000116666666667 -0.000590625 0.592754
358 1 -0.031303125 0.000116666666667 0.000590625 0.586001
359 1 -0.031303125 0.000116666666667 0.001771875 0.597315
360 1 -0.031303125 0.000116666666667 0.002953125 0.587685
361 1 -0.031303125 0.000116666666667 0.004134375 0.587009
362 1 -0.031303125 0.000116666666667 0.005315625 0.574872
363 1 -0.031303125 0.000116666666667 0.006496875 0.562059
364 1 -0.031303125 0.000116666666667 0.007678125 0.542238
365 1 -0.031303125 0.000116666666667 0.008859375 0.51835
366 1 -0.031303125 0.000116666666667 0.010040625 0.473444
367 1 -0.031303125 0.000116666666667 0.011221875 0.454668
368 1 -0.031303125 0.000116666666667 0.012403125 0.380135
369 1 -0.031303125 0.000116666666667 0.013584375 0.376928
370 1 -0.031303125 0.000116666666667 0.014765625 0.28192
371 1 -0.031303125 0.000116666666667 0.015946875 0.300721
372 1 -0.031303125 0.000116666666667 0.017128125 0.200889
373 1 -0.031303125 0.000116666666667 0.018309375 0.239474
374 1 -0.031303125 0.000116666666667 0.019490625 0.146521
375 1 -0.030121875 -0.00261666666667 -0.020671875 0.171964
376 1 -0.030121875 -0.00261666666667 -0.019490625 0.248361
377 1 -0.030121875 -0.00261666666667 -0.018309375 0.249025
378 1 -0.030121875 -0.00261666666667 -0.017128125 0.325832
379 1 -0.030121875 -0.00261666666667 -0.015946875 0.335172
380 1 -0.030121875 -0.00261666666667 -0.014765625 0.39736
381 1 -0.030121875 -0.00261666666667 -0.013584375 0.411792
382 1 -0.030121875 -0.00261666666667 -0.012403125 0.450448
383 1 -0.030121875 -0.00261666666667 -0.011221875 0.471756
384 1 -0.030121875 -0.00261666666667 -0.010040625 0.483667
385 1 -0.030121875 -0.00261666666667 -0.008859375 0.513466
386 1 -0.030121875 -0.00261666666667 -0.007678125 0.503784
387 1 -0.030121875 -0.00261666666667 -0.006496875 0.541321
388 1 -0.030121875 -0.00261666666667 -0.005315625 0.516791
389 1 -0.030121875 -0.00261666666667 -0.004134375 0.564386
390 1 -0.030121875 -0.00261666666667 -0.002953125 0.527228
391 1 -0.030121875 -0.00261666666667 -0.001771875 0.58366
392 1 -0.030121875 -0.00261666666667 -0.000590625 0.534691
393 1 -0.030121875 -0.00261666666667 0.000590625 0.600932
394 1 -0.030121875 -0.00261666666667 0.001771875 0.538374
395 1 -0.030121875 -0.00261666666667 0.002953125 0.607609
396 1 -0.030121875 -0.00261666666667 0.004134375 0.523305
397 1 -0.030121875 -0.00261666666667 0.005315625 0.601655
398 1 -0.030121875 -0.00261666666667 0.006496875 0.49813
399 1 -0.030121875 -0.00261666666667 0.007678125 0.571728
400 1 -0.030121875 -0.00261666666667 0.008859375 0.453814
401 1 -0.030121875 -0.00261666666667 0.010040625 0.516459
402 1 -0.030121875 -0.00261666666667 0.011221875 0.392514
403 1 -0.030121875 -0.00261666666667 0.012403125 0.435328
404 1 -0.030121875 -0.00261666666667 0.013584375 0.316794
405 1 -0.030121875 -0.00261666666667 0.014765625 0.332841
406 1 -0.030121875 -0.00261666666667 0.015946875 0.240856
407 1 -0.030121875 -0.00261666666667 0.017128125 0.237176
408 1 -0.030121875 -0.00261666666667 0.018309375 0.183891
409 1 -0.030121875 -0.00261666666667 0.019490625 0.167741
410 1 -0.030121875 -0.00261666666667 0.020671875 0.146595
411 1 -0.030121875 -0.00125 -0.020671875 0.171964
412 1 -0.030121875 -0.00125 -0.019490625 0.248361
413 1 -0.030121875 -0.00125 -0.018309375 0.249025
414 1 -0.030121875 -0.00125 -0.017128125 0.325832
415 1 -0.030121875 -0.00125 -0.015946875 0.335172
416 1 -0.030121875 -0.00125 -0.014765625 0.39736
417 1 -0.030121875 -0.00125 -0.013584375 0.411792
418 1 -0.030121875 -0.00125 -0.012403125 0.450448
419 1 -0.030121875 -0.00125 -0.011221875 0.471756
420 1 -0.030121875 -0.00125 -0.010040625 0.483667
421 1 -0.030121875 -0.00125 -0.008859375 0.513466
422 1 -0.030121875 -0.00125 -0.007678125 0.503784
423 1 -0.030121875 -0.00125 -0.006496875 0.541321
424 1 -0.030121875 -0.00125 -0.005315625 0.516791
425 1 -0.030121875 -0.00125 -0.004134375 0.564386
426 1 -0.030121875 -0.00125 -0.002953125 0.527228
427 1 -0.030121875 -0.00125 -0.001771875 0.58366
428 1 -0.030121875 -0.00125 -0.000590625 0.534691
429 1 -0.030121875 -0.00125 0.000590625 0.600932
430 1 -0.030121875 -0.00125 0.001771875 0.538374
431 1 -0.030121875 -0.00125 0.002953125 0.607609
432 1 -0.030121875 -0.00125 0.004134375 0.523305
433 1 -0.030121875 -0.00125 0.005315625 0.601655
434 1 -0.030121875 -0.00125 0.006496875 0.49813
435 1 -0.030121875 -0.00125 0.007678125 0.571728
436 1 -0.030121875 -0.00125 0.008859375 0.453814
437 1 -0.030121875 -0.00125 0.010040625 0.516459
438 1 -0.030121875 -0.00125 0.011221875 0.392514
439 1 -0.030121875 -0.00125 0.012403125 0.435328
440 1 -0.030121875 -0.00125 0.013584375 0.316794
441 1 -0.030121875 -0.00125 0.014765625 0.332841
442 1 -0.030121875 -0.00125 0.015946875 0.240856
443 1 -0.030121875 -0.00125 0.017128125 0.237176
444 1 -0.030121875 -0.00125 0.018309375 0.183891
445 1 -0.030121875 -0.00125 0.019490625 0.167741
446 1 -0.030121875 -0.00125 0.020671875 0.146595
447 1 -0.030121875 0.000116666666667 -0.020671875 0.171964
448 1 -0.030121875 0.000116666666667 -0.019490625 0.248361
449 1 -0.030121875 0.000116666666667 -0.018309375 0.249025
450 1 -0.030121875 0.000116666666667 -0.017128125 0.325832
451 1 -0.030121875 0.000116666666667 -0.015946875 0.335172
452 1 -0.030121875 0.000116666666667 -0.014765625 0.39736
453 1 -0.030121875 0.000116666666667 -0.013584375 0.411792
454 1 -0.030121875 0.000116666666667 -0.012403125 0.450448
455 1 -0.030121875 0.000116666666667 -0.011221875 0.471756
456 1 -0.030121875 0.000116666666667 -0.010040625 0.483667
457 1 -0.030121875 0.000116666666667 -0.008859375 0.513466
458 1 -0.030121875 0.000116666666667 -0.007678125 0.503784
459 1 -0.030121875 0.000116666666667 -0.006496875 0.541321
460 1 -0.030121875 0.000116666666667 -0.005315625 0.516791
461 1 -0.030121875 0.000116666666667 -0.004134375 0.564386
462 1 -0.030121875 0.000116666666667 -0.002953125 0.527228
463 1 -0.030121875 0.000116666666667 -0.001771875 0.58366
464 1 -0.030121875 0.000116666666667 -0.000590625 0.534691
465 1 -0.030121875 0.000116666666667 0.000590625 0.600932
466 1 -0.030121875 0.000116666666667 0.001771875 0.538374
467 1 -0.030121875 0.000116666666667 0.002953125 0.607609
468 1 -0.030121875 0.000116666666667 0.004134375 0.523305
469 1 -0.030121875 0.000116666666667 0.005315625 0.601655
470 1 -0.030121875 0.000116666666667 0.006496875 0.49813
471 1 -0.030121875 0.000116666666667 0.007678125 0.571728
472 1 -0.030121875 0.000116666666667 0.008859375 0.453814
473 1 -0.030121875 0.000116666666667 0.010040625 0.516459
474 1 -0.030121875 0.000116666666667 0.011221875 0.392514
475 1 -0.030121875 0.000116666666667 0.012403125 0.435328
476 1 -0.030121875 0.000116666666667 0.013584375 0.316794
477 1 -0.030121875 0.000116666666667 0.014765625 0.332841
478 1 -0.030121875 0.000116666666667 0.015946875 0.240856
479 1 -0.030121875 0.000116666666667 0.017128125 0.237176
480 1 -0.030121875 0.000116666666667 0.018309375 0.183891
481 1 -0.030121875 0.000116666666667 0.019490625 0.167741
482 1 -0.030121875 0.000116666666667 0.020671875 0.146595
483 1 -0.028940625 -0.00261666666667 -0.021853125 0.306558
484 1 -0.028940625 -0.00261666666667 -0.020671875 0.292288
485 1 -0.028940625 -0.00261666666667 -0.019490625 0.387531
486 1 -0.028940625 -0.00261666666667 -0.018309375 0.397705
487 1 -0.028940625 -0.00261666666667 -0.017128125 0.464561
488 1 -0.028940625 -0.00261666666667 -0.015946875 0.48209
489 1 -0.028940625 -0.00261666666667 -0.014765625 0.526371
490 1 -0.028940625 -0.00261666666667 -0.013584375 0.536472
491 1 -0.028940625 -0.00261666666667 -0.012403125 0.570371
492 1 -0.028940625 -0.00261666666667 -0.011221875 0.576057
493 1 -0.028940625 -0.00261666666667 -0.010040625 0.603464
494 1 -0.028940625 -0.00261666666667 -0.008859375 0.602419
495 1 -0.028940625 -0.00261666666667 -0.007678125 0.624898
496 1 -0.028940625 -0.00261666666667 -0.006496875 0.62271
497 1 -0.028940625 -0.00261666666667 -0.005315625 0.642501
498 1 -0.028940625 -0.00261666666667 -0.004134375 0.636468
499 1 -0.028940625 -0.00261666666667 -0.002953125 0.654384
500 1 -0.028940625 -0.00261666666667 -0.001771875 0.648679
501 1 -0.028940625 -0.00261666666667 -0.000590625 0.664874
502 1 -0.028940625 -0.00261666666667 0.000590625 0.657459
503 1 -0.028940625 -0.00261666666667 0.001771875 0.668783
504 1 -0.028940625 -0.00261666666667 0.002953125 0.659175
505 1 -0.028940625 -0.00261666666667 0.004134375 0.660294
506 1 -0.028940625 -0.00261666666667 0.005315625 0.649009
507 1 -0.028940625 -0.00261666666667 0.006496875 0.639401
508 1 -0.028940625 -0.00261666666667 0.007678125 0.627986
509 1 -0.028940625 -0.00261666666667 0.008859375 0.605897
510 1 -0.028940625 -0.00261666666667 0.010040625 0.59419
511 1 -0.028940625 -0.00261666666667 0.011221875 0.557889
512 1 -0.028940625 -0.00261666666667 0.012403125 0.545209
513 1 -0.028940625 -0.00261666666667 0.013584375 0.496291
514 1 -0.028940625 -0.00261666666667 0.014765625 0.457446
515 1 -0.028940625 -0.00261666666667 0.015946875 0.416005
516 1 -0.028940625 -0.00261666666667 0.017128125 0.349594
517 1 -0.028940625 -0.00261666666667 0.018309375 0.337776
518 1 -0.028940625 -0.00261666666667 0.019490625 0.261009
519 1 -0.028940625 -0.00261666666667 0.020671875 0.278358
520 1 -0.028940625 -0.00261666666667 0.021853125 0.198873
521 1 -0.028940625 -0.00125 -0.021853125 0.306558
522 1 -0.028940625 -0.00125 -0.020671875 0.292288
523 1 -0.028940625 -0.00125 -0.019490625 0.387531
524 1 -0.028940625 -0.00125 -0.018309375 0.397705
525 1 -0.028940625 -0.00125 -0.017128125 0.464561
526 1 -0.028940625 -0.00125 -0.015946875 0.48209
527 1 -0.028940625 -0.00125 -0.014765625 0.526371
528 1 -0.028940625 -0.00125 -0.013584375 0.536472
529 1 -0.028940625 -0.00125 -0.012403125 0.570371
530 1 -0.028940625 -0.00125 -0.011221875 0.576057
531 1 -0.028940625 -0.00125 -0.010040625 0.603464
532 1 -0.028940625 -0.00125 -0.008859375 0.602419
533 1 -0.028940625 -0.00125 -0.007678125 0.624898
534 1 -0.028940625 -0.00125 -0.006496875 0.62271
535 1 -0.028940625 -0.00125 -0.005315625 0.642501
536 1 -0.028940625 -0.00125 -0.004134375 0.636468
537 1 -0.028940625 -0.00125 -0.002953125 0.654384