ITEM: TIMESTEP
0
ITEM: NUMBER OF ATOMS
9240
ITEM: BOX BOUNDS ss ss ss
-3.7007399999999996e-02 3.7007399999999996e-02
-2.0002499999999999e-03 2.5000000000000004e-07
-3.7007399999999996e-02 3.7007399999999996e-02
ITEM: ATOMS id type x y z c_1
0 1 -0.037209375 -0.00261666666667 -0.000590625 0.34844
1 1 -0.037209375 -0.00125 -0.000590625 0.34844
2 1 -0.037209375 0.000116666666667 -0.000590625 0.34844
3 1 -0.036028125 -0.00261666666667 -0.007678125 0.369728
4 1 -0.036028125 -0.00261666666667 -0.006496875 0.27936
5 1 -0.036028125 -0.00261666666667 -0.005315625 0.369235
6 1 -0.036028125 -0.00261666666667 -0.004134375 0.278657
7 1 -0.036028125 -0.00261666666667 -0.002953125 0.369067
8 1 -0.036028125 -0.00261666666667 -0.001771875 0.278647
9 1 -0.036028125 -0.00261666666667 -0.000590625 0.370468
10 1 -0.036028125 -0.00261666666667 0.000590625 0.279808
11 1 -0.036028125 -0.00261666666667 0.001771875 0.371962
12 1 -0.036028125 -0.00261666666667 0.002953125 0.281352
13 1 -0.036028125 -0.00261666666667 0.004134375 0.373506
14 1 -0.036028125 -0.00261666666667 0.005315625 0.283204
15 1 -0.036028125 -0.00261666666667 0.006496875 0.374755
16 1 -0.036028125 -0.00261666666667 0.007678125 0.285754
17 1 -0.036028125 -0.00125 -0.007678125 0.369728
18 1 -0.036028125 -0.00125 -0.006496875 0.27936
19 1 -0.036028125 -0.00125 -0.005315625 0.369235
20 1 -0.036028125 -0.00125 -0.004134375 0.278657
21 1 -0.036028125 -0.00125 -0.002953125 0.369067
22 1 -0.036028125 -0.00125 -0.001771875 0.278647
23 1 -0.036028125 -0.00125 -0.000590625 0.370468
24 1 -0.036028125 -0.00125 0.000590625 0.279808
25 1 -0.036028125 -0.00125 0.001771875 0.371962
26 1 -0.036028125 -0.00125 0.002953125 0.281352
27 1 -0.036028125 -0.00125 0.004134375 0.373506
28 1 -0.036028125 -0.00125 0.005315625 0.283204
29 1 -0.036028125 -0.00125 0.006496875 0.374755
30 1 -0.036028125 -0.00125 0.007678125 0.285754
31 1 -0.036028125 0.000116666666667 -0.007678125 0.369728
32 1 -0.036028125 0.000116666666667 -0.006496875 0.27936
33 1 -0.036028125 0.000116666666667 -0.005315625 0.369235
34 1 -0.036028125 0.000116666666667 -0.004134375 0.278657
35 1 -0.036028125 0.000116666666667 -0.002953125 0.369067
36 1 -0.036028125 0.000116666666667 -0.001771875 0.278647
37 1 -0.036028125 0.000116666666667 -0.000590625 0.370468
38 1 -0.036028125 0.000116666666667 0.000590625 0.279808
39 1 -0.036028125 0.000116666666667 0.001771875 0.371962
40 1 -0.036028125 0.000116666666667 0.002953125 0.281352
41 1 -0.036028125 0.000116666666667 0.004134375 0.373506
42 1 -0.036028125 0.000116666666667 0.005315625 0.283204
43 1 -0.036028125 0.000116666666667 0.006496875 0.374755
44 1 -0.036028125 0.000116666666667 0.007678125 0.285754
45 1 -0.034846875 -0.00261666666667 -0.011221875 0.230368
46 1 -0.034846875 -0.00261666666667 -0.010040625 0.21553
47 1 -0.034846875 -0.00261666666667 -0.008859375 0.23158
48 1 -0.034846875 -0.00261666666667 -0.007678125 0.214247
49 1 -0.034846875 -0.00261666666667 -0.006496875 0.233293
50 1 -0.034846875 -0.00261666666667 -0.005315625 0.213346
51 1 -0.034846875 -0.00261666666667 -0.004134375 0.234967
52 1 -0.034846875 -0.00261666666667 -0.002953125 0.213162
53 1 -0.034846875 -0.00261666666667 -0.001771875 0.237373
54 1 -0.034846875 -0.00261666666667 -0.000590625 0.214184
55 1 -0.034846875 -0.00261666666667 0.000590625 0.23947
56 1 -0.034846875 -0.00261666666667 0.001771875 0.216069
57 1 -0.034846875 -0.00261666666667 0.002953125 0.242824
58 1 -0.034846875 -0.00261666666667 0.004134375 0.218009
59 1 -0.034846875 -0.00261666666667 0.005315625 0.24602
60 1 -0.034846875 -0.00261666666667 0.006496875 0.219832
61 1 -0.034846875 -0.00261666666667 0.007678125 0.249015
62 1 -0.034846875 -0.00261666666667 0.008859375 0.22242
63 1 -0.034846875 -0.00261666666667 0.010040625 0.250862
64 1 -0.034846875 -0.00261666666667 0.011221875 0.22503
65 1 -0.034846875 -0.00125 -0.011221875 0.230368
66 1 -0.034846875 -0.00125 -0.010040625 0.21553
67 1 -0.034846875 -0.00125 -0.008859375 0.23158
68 1 -0.034846875 -0.00125 -0.007678125 0.214247
69 1 -0.034846875 -0.00125 -0.006496875 0.233293
70 1 -0.034846875 -0.00125 -0.005315625 0.213346
71 1 -0.034846875 -0.00125 -0.004134375 0.234967
72 1 -0.034846875 -0.00125 -0.002953125 0.213162
73 1 -0.034846875 -0.00125 -0.001771875 0.237373
74 1 -0.034846875 -0.00125 -0.000590625 0.214184
75 1 -0.034846875 -0.00125 0.000590625 0.23947
76 1 -0.034846875 -0.00125 0.001771875 0.216069
77 1 -0.034846875 -0.00125 0.002953125 0.242824
78 1 -0.034846875 -0.00125 0.004134375 0.218009
79 1 -0.034846875 -0.00125 0.005315625 0.24602
80 1 -0.034846875 -0.00125 0.006496875 0.219832
81 1 -0.034846875 -0.00125 0.007678125 0.249015
82 1 -0.034846875 -0.00125 0.008859375 0.22242
83 1 -0.034846875 -0.00125 0.010040625 0.250862
84 1 -0.034846875 -0.00125 0.011221875 0.22503
85 1 -0.034846875 0.000116666666667 -0.011221875 0.230368
86 1 -0.034846875 0.000116666666667 -0.010040625 0.21553
87 1 -0.034846875 0.000116666666667 -0.008859375 0.23158
88 1 -0.034846875 0.000116666666667 -0.007678125 0.214247
89 1 -0.034846875 0.000116666666667 -0.006496875 0.233293
90 1 -0.034846875 0.000116666666667 -0.005315625 0.213346
91 1 -0.034846875 0.000116666666667 -0.004134375 0.234967
92 1 -0.034846875 0.000116666666667 -0.002953125 0.213162
93 1 -0.034846875 0.000116666666667 -0.001771875 0.237373
94 1 -0.034846875 0.000116666666667 -0.000590625 0.214184
95 1 -0.034846875 0.000116666666667 0.000590625 0.23947
96 1 -0.034846875 0.000116666666667 0.001771875 0.216069
97 1 -0.034846875 0.000116666666667 0.002953125 0.242824
98 1 -0.034846875 0.000116666666667 0.004134375 0.218009
99 1 -0.034846875 0.000116666666667 0.005315625 0.24602
100 1 -0.034846875 0.000116666666667 0.006496875 0.219832
101 1 -0.034846875 0.000116666666667 0.007678125 0.249015
102 1 -0.034846875 0.000116666666667 0.008859375 0.22242
103 1 -0.034846875 0.000116666666667 0.010040625 0.250862
104 1 -0.034846875 0.000116666666667 0.011221875 0.22503
105 1 -0.033665625 -0.00261666666667 -0.013584375 0.234794
106 1 -0.033665625 -0.00261666666667 -0.012403125 0.333572
107 1 -0.033665625 -0.00261666666667 -0.011221875 0.233587
108 1 -0.033665625 -0.00261666666667 -0.010040625 0.334107
109 1 -0.033665625 -0.00261666666667 -0.008859375 0.231364
110 1 -0.033665625 -0.00261666666667 -0.007678125 0.334783
111 1 -0.033665625 -0.00261666666667 -0.006496875 0.229693
112 1 -0.033665625 -0.00261666666667 -0.005315625 0.335851
113 1 -0.033665625 -0.00261666666667 -0.004134375 0.228759
114 1 -0.033665625 -0.00261666666667 -0.002953125 0.336585
115 1 -0.033665625 -0.00261666666667 -0.001771875 0.229189
116 1 -0.033665625 -0.00261666666667 -0.000590625 0.338766
117 1 -0.033665625 -0.00261666666667 0.000590625 0.231143
118 1 -0.033665625 -0.00261666666667 0.001771875 0.340611
119 1 -0.033665625 -0.00261666666667 0.002953125 0.233442
120 1 -0.033665625 -0.00261666666667 0.004134375 0.342326
121 1 -0.033665625 -0.00261666666667 0.005315625 0.23608
122 1 -0.033665625 -0.00261666666667 0.006496875 0.343456
123 1 -0.033665625 -0.00261666666667 0.007678125 0.239367
124 1 -0.033665625 -0.00261666666667 0.008859375 0.345201
125 1 -0.033665625 -0.00261666666667 0.010040625 0.243117
126 1 -0.033665625 -0.00261666666667 0.011221875 0.346675
127 1 -0.033665625 -0.00261666666667 0.012403125 0.246767
128 1 -0.033665625 -0.00261666666667 0.013584375 0.348244
129 1 -0.033665625 -0.00125 -0.013584375 0.234794
130 1 -0.033665625 -0.00125 -0.012403125 0.333572
131 1 -0.033665625 -0.00125 -0.011221875 0.233587
132 1 -0.033665625 -0.00125 -0.010040625 0.334107
133 1 -0.033665625 -0.00125 -0.008859375 0.231364
134 1 -0.033665625 -0.00125 -0.007678125 0.334783
135 1 -0.033665625 -0.00125 -0.006496875 0.229693
136 1 -0.033665625 -0.00125 -0.005315625 0.335851
137 1 -0.033665625 -0.00125 -0.004134375 0.228759
138 1 -0.033665625 -0.00125 -0.002953125 0.336585
139 1 -0.033665625 -0.00125 -0.001771875 0.229189
140 1 -0.033665625 -0.00125 -0.000590625 0.338766
141 1 -0.033665625 -0.00125 0.000590625 0.231143
142 1 -0.033665625 -0.00125 0.001771875 0.340611
143 1 -0.033665625 -0.00125 0.002953125 0.233442
144 1 -0.033665625 -0.00125 0.004134375 0.342326
145 1 -0.033665625 -0.00125 0.005315625 0.23608
146 1 -0.033665625 -0.00125 0.006496875 0.343456
147 1 -0.033665625 -0.00125 0.007678125 0.239367
148 1 -0.033665625 -0.00125 0.008859375 0.345201
149 1 -0.033665625 -0.00125 0.010040625 0.243117
150 1 -0.033665625 -0.00125 0.011221875 0.346675
151 1 -0.033665625 -0.00125 0.012403125 0.246767
152 1 -0.033665625 -0.00125 0.013584375 0.348244
153 1 -0.033665625 0.000116666666667 -0.013584375 0.234794
154 1 -0.033665625 0.000116666666667 -0.012403125 0.333572
155 1 -0.033665625 0.000116666666667 -0.011221875 0.233587
156 1 -0.033665625 0.000116666666667 -0.010040625 0.334107
157 1 -0.033665625 0.000116666666667 -0.008859375 0.231364
158 1 -0.033665625 0.000116666666667 -0.007678125 0.334783
159 1 -0.033665625 0.000116666666667 -0.006496875 0.229693
160 1 -0.033665625 0.000116666666667 -0.005315625 0.335851
161 1 -0.033665625 0.000116666666667 -0.004134375 0.228759
162 1 -0.033665625 0.000116666666667 -0.002953125 0.336585
163 1 -0.033665625 0.000116666666667 -0.001771875 0.229189
164 1 -0.033665625 0.000116666666667 -0.000590625 0.338766
165 1 -0.033665625 0.000116666666667 0.000590625 0.231143
166 1 -0.033665625 0.000116666666667 0.001771875 0.340611
167 1 -0.033665625 0.000116666666667 0.002953125 0.233442
168 1 -0.033665625 0.000116666666667 0.004134375 0.342326
169 1 -0.033665625 0.000116666666667 0.005315625 0.23608
170 1 -0.033665625 0.000116666666667 0.006496875 0.343456
171 1 -0.033665625 0.000116666666667 0.007678125 0.239367
172 1 -0.033665625 0.000116666666667 0.008859375 0.345201
173 1 -0.033665625 0.000116666666667 0.010040625 0.243117
174 1 -0.033665625 0.000116666666667 0.011221875 0.346675
175 1 -0.033665625 0.000116666666667 0.012403125 0.246767
176 1 -0.033665625 0.000116666666667 0.013584375 0.348244
177 1 -0.032484375 -0.00261666666667 -0.018309375 0.189622
178 1 -0.032484375 -0.00261666666667 -0.017128125 0.174831
179 1 -0.032484375 -0.00261666666667 -0.015946875 0.191754
180 1 -0.032484375 -0.00261666666667 -0.014765625 0.175035
181 1 -0.032484375 -0.00261666666667 -0.013584375 0.194391
182 1 -0.032484375 -0.00261666666667 -0.012403125 0.175063
183 1 -0.032484375 -0.00261666666667 -0.011221875 0.197511
184 1 -0.032484375 -0.00261666666667 -0.010040625 0.174433
185 1 -0.032484375 -0.00261666666667 -0.008859375 0.201714
186 1 -0.032484375 -0.00261666666667 -0.007678125 0.174878
187 1 -0.032484375 -0.00261666666667 -0.006496875 0.207187
188 1 -0.032484375 -0.00261666666667 -0.005315625 0.175809
189 1 -0.032484375 -0.00261666666667 -0.004134375 0.213272
190 1 -0.032484375 -0.00261666666667 -0.002953125 0.17752
191 1 -0.032484375 -0.00261666666667 -0.001771875 0.219912
192 1 -0.032484375 -0.00261666666667 -0.000590625 0.179548
193 1 -0.032484375 -0.00261666666667 0.000590625 0.225078
194 1 -0.032484375 -0.00261666666667 0.001771875 0.182461
195 1 -0.032484375 -0.00261666666667 0.002953125 0.229577
196 1 -0.032484375 -0.00261666666667 0.004134375 0.184464
197 1 -0.032484375 -0.00261666666667 0.005315625 0.232223
198 1 -0.032484375 -0.00261666666667 0.006496875 0.185842
199 1 -0.032484375 -0.00261666666667 0.007678125 0.233324
200 1 -0.032484375 -0.00261666666667 0.008859375 0.186776
201 1 -0.032484375 -0.00261666666667 0.010040625 0.231728
202 1 -0.032484375 -0.00261666666667 0.011221875 0.187564
203 1 -0.032484375 -0.00261666666667 0.012403125 0.228467
204 1 -0.032484375 -0.00261666666667 0.013584375 0.188889
205 1 -0.032484375 -0.00261666666667 0.014765625 0.223417
206 1 -0.032484375 -0.00261666666667 0.015946875 0.190267
207 1 -0.032484375 -0.00261666666667 0.017128125 0.221108
208 1 -0.032484375 -0.00261666666667 0.018309375 0.193862
209 1 -0.032484375 -0.00125 -0.018309375 0.189622
210 1 -0.032484375 -0.00125 -0.017128125 0.174831
211 1 -0.032484375 -0.00125 -0.015946875 0.191754
212 1 -0.032484375 -0.00125 -0.014765625 0.175035
213 1 -0.032484375 -0.00125 -0.013584375 0.194391
214 1 -0.032484375 -0.00125 -0.012403125 0.175063
215 1 -0.032484375 -0.00125 -0.011221875 0.197511
216 1 -0.032484375 -0.00125 -0.010040625 0.174433
217 1 -0.032484375 -0.00125 -0.008859375 0.201714
218 1 -0.032484375 -0.00125 -0.007678125 0.174878
219 1 -0.032484375 -0.00125 -0.006496875 0.207187
220 1 -0.032484375 -0.00125 -0.005315625 0.175809
221 1 -0.032484375 -0.00125 -0.004134375 0.213272
222 1 -0.032484375 -0.00125 -0.002953125 0.17752
223 1 -0.032484375 -0.00125 -0.001771875 0.219912
224 1 -0.032484375 -0.00125 -0.000590625 0.179548
225 1 -0.032484375 -0.00125 0.000590625 0.225078
226 1 -0.032484375 -0.00125 0.001771875 0.182461
227 1 -0.032484375 -0.00125 0.002953125 0.229577
228 1 -0.032484375 -0.00125 0.004134375 0.184464
229 1 -0.032484375 -0.00125 0.005315625 0.232223
230 1 -0.032484375 -0.00125 0.006496875 0.185842
231 1 -0.032484375 -0.00125 0.007678125 0.233324
232 1 -0.032484375 -0.00125 0.008859375 0.186776
233 1 -0.032484375 -0.00125 0.010040625 0.231728
234 1 -0.032484375 -0.00125 0.011221875 0.187564
235 1 -0.032484375 -0.00125 0.012403125 0.228467
236 1 -0.032484375 -0.00125 0.013584375 0.188889
237 1 -0.032484375 -0.00125 0.014765625 0.223417
238 1 -0.032484375 -0.00125 0.015946875 0.190267
239 1 -0.032484375 -0.00125 0.017128125 0.221108
240 1 -0.032484375 -0.00125 0.018309375 0.193862
241 1 -0.032484375 0.000116666666667 -0.018309375 0.189622
242 1 -0.032484375 0.000116666666667 -0.017128125 0.174831
243 1 -0.032484375 0.000116666666667 -0.015946875 0.191754
244 1 -0.032484375 0.000116666666667 -0.014765625 0.175035
245 1 -0.032484375 0.000116666666667 -0.013584375 0.194391
246 1 -0.032484375 0.000116666666667 -0.012403125 0.175063
247 1 -0.032484375 0.000116666666667 -0.011221875 0.197511
248 1 -0.032484375 0.000116666666667 -0.010040625 0.174433
249 1 -0.032484375 0.000116666666667 -0.008859375 0.201714
250 1 -0.032484375 0.000116666666667 -0.007678125 0.174878
251 1 -0.032484375 0.000116666666667 -0.006496875 0.207187
252 1 -0.032484375 0.000116666666667 -0.005315625 0.175809
253 1 -0.032484375 0.000116666666667 -0.004134375 0.213272
254 1 -0.032484375 0.000116666666667 -0.002953125 0.17752
255 1 -0.032484375 0.000116666666667 -0.001771875 0.219912
256 1 -0.032484375 0.000116666666667 -0.000590625 0.179548
257 1 -0.032484375 0.000116666666667 0.000590625 0.225078
258 1 -0.032484375 0.000116666666667 0.001771875 0.182461
259 1 -0.032484375 0.000116666666667 0.002953125 0.229577
260 1 -0.032484375 0.000116666666667 0.004134375 0.184464
261 1 -0.032484375 0.000116666666667 0.005315625 0.232223
262 1 -0.032484375 0.000116666666667 0.006496875 0.185842
263 1 -0.032484375 0.000116666666667 0.007678125 0.233324
264 1 -0.032484375 0.000116666666667 0.008859375 0.186776
265 1 -0.032484375 0.000116666666667 0.010040625 0.231728
266 1 -0.032484375 0.000116666666667 0.011221875 0.187564
267 1 -0.032484375 0.000116666666667 0.012403125 0.228467
268 1 -0.032484375 0.000116666666667 0.013584375 0.188889
269 1 -0.032484375 0.000116666666667 0.014765625 0.223417
270 1 -0.032484375 0.000116666666667 0.015946875 0.190267
271 1 -0.032484375 0.000116666666667 0.017128125 0.221108
272 1 -0.032484375 0.000116666666667 0.018309375 0.193862
273 1 -0.031303125 -0.00261666666667 -0.019490625 0.301413
274 1 -0.031303125 -0.00261666666667 -0.018309375 0.201455
275 1 -0.031303125 -0.00261666666667 -0.017128125 0.305093
276 1 -0.031303125 -0.00261666666667 -0.015946875 0.202172
277 1 -0.031303125 -0.00261666666667 -0.014765625 0.308335
278 1 -0.031303125 -0.00261666666667 -0.013584375 0.201917
279 1 -0.031303125 -0.00261666666667 -0.012403125 0.311234
280 1 -0.031303125 -0.00261666666667 -0.011221875 0.201376
281 1 -0.031303125 -0.00261666666667 -0.010040625 0.314407
282 1 -0.031303125 -0.00261666666667 -0.008859375 0.200248
283 1 -0.031303125 -0.00261666666667 -0.007678125 0.318635
284 1 -0.031303125 -0.00261666666667 -0.006496875 0.200194
285 1 -0.031303125 -0.00261666666667 -0.005315625 0.324775
286 1 -0.031303125 -0.00261666666667 -0.004134375 0.201195
287 1 -0.031303125 -0.00261666666667 -0.002953125 0.3303
288 1 -0.031303125 -0.00261666666667 -0.001771875 0.20413
289 1 -0.031303125 -0.00261666666667 -0.000590625 0.335943
290 1 -0.031303125 -0.00261666666667 0.000590625 0.20794
291 1 -0.031303125 -0.00261666666667 0.001771875 0.338582
292 1 -0.031303125 -0.00261666666667 0.002953125 0.211757
293 1 -0.031303125 -0.00261666666667 0.004134375 0.338804
294 1 -0.031303125 -0.00261666666667 0.005315625 0.214986
295 1 -0.031303125 -0.00261666666667 0.006496875 0.336109
296 1 -0.031303125 -0.00261666666667 0.007678125 0.217521
297 1 -0.031303125 -0.00261666666667 0.008859375 0.331854
298 1 -0.031303125 -0.00261666666667 0.010040625 0.219364
299 1 -0.031303125 -0.00261666666667 0.011221875 0.328358
300 1 -0.031303125 -0.00261666666667 0.012403125 0.221051
301 1 -0.031303125 -0.00261666666667 0.013584375 0.326429
302 1 -0.031303125 -0.00261666666667 0.014765625 0.223592
303 1 -0.031303125 -0.00261666666667 0.015946875 0.32562
304 1 -0.031303125 -0.00261666666667 0.017128125 0.227037
305 1 -0.031303125 -0.00261666666667 0.018309375 0.327626
306 1 -0.031303125 -0.00261666666667 0.019490625 0.231245
307 1 -0.031303125 -0.00125 -0.019490625 0.301413
308 1 -0.031303125 -0.00125 -0.018309375 0.201455
309 1 -0.031303125 -0.00125 -0.017128125 0.305093
310 1 -0.031303125 -0.00125 -0.015946875 0.202172
311 1 -0.031303125 -0.00125 -0.014765625 0.308335
312 1 -0.031303125 -0.00125 -0.013584375 0.201917
313 1 -0.031303125 -0.00125 -0.012403125 0.311234
314 1 -0.031303125 -0.00125 -0.011221875 0.201376
315 1 -0.031303125 -0.00125 -0.010040625 0.314407
316 1 -0.031303125 -0.00125 -0.008859375 0.200248
317 1 -0.031303125 -0.00125 -0.007678125 0.318635
318 1 -0.031303125 -0.00125 -0.006496875 0.200194
319 1 -0.031303125 -0.00125 -0.005315625 0.324775
320 1 -0.031303125 -0.00125 -0.004134375 0.201195
321 1 -0.031303125 -0.00125 -0.002953125 0.3303
322 1 -0.031303125 -0.00125 -0.001771875 0.20413
323 1 -0.031303125 -0.00125 -0.000590625 0.335943
324 1 -0.031303125 -0.00125 0.000590625 0.20794
325 1 -0.031303125 -0.00125 0.001771875 0.338582
326 1 -0.031303125 -0.00125 0.002953125 0.211757
327 1 -0.031303125 -0.00125 0.004134375 0.338804
328 1 -0.031303125 -0.00125 0.005315625 0.214986
329 1 -0.031303125 -0.00125 0.006496875 0.336109
330 1 -0.031303125 -0.00125 0.007678125 0.217521
331 1 -0.031303125 -0.00125 0.008859375 0.331854
332 1 -0.031303125 -0.00125 0.010040625 0.219364
333 1 -0.031303125 -0.00125 0.011221875 0.328358
334 1 -0.031303125 -0.00125 0.012403125 0.221051
335 1 -0.031303125 -0.00125 0.013584375 0.326429
336 1 -0.031303125 -0.00125 0.014765625 0.223592
337 1 -0.031303125 -0.00125 0.015946875 0.32562
338 1 -0.031303125 -0.00125 0.017128125 0.227037
339 1 -0.031303125 -0.00125 0.018309375 0.327626
340 1 -0.031303125 -0.00125 0.019490625 0.231245
341 1 -0.031303125 0.000116666666667 -0.019490625 0.301413
342 1 -0.031303125 0.000116666666667 -0.018309375 0.201455
343 1 -0.031303125 0.000116666666667 -0.017128125 0.305093
344 1 -0.031303125 0.000116666666667 -0.015946875 0.202172
345 1 -0.031303125 0.000116666666667 -0.014765625 0.308335
346 1 -0.031303125 0.000116666666667 -0.013584375 0.201917
347 1 -0.031303125 0.000116666666667 -0.012403125 0.311234
348 1 -0.031303125 0.000116666666667 -0.011221875 0.201376
349 1 -0.031303125 0.000116666666667 -0.010040625 0.314407
350 1 -0.031303125 0.000116666666667 -0.008859375 0.200248
351 1 -0.031303125 0.000116666666667 -0.007678125 0.318635
352 1 -0.031303125 0.000116666666667 -0.006496875 0.200194
353 1 -0.031303125 0.000116666666667 -0.005315625 0.324775
354 1 -0.031303125 0.000116666666667 -0.004134375 0.201195
355 1 -0.031303125 0.000116666666667 -0.002953125 0.3303
356 1 -0.031303125 0.000116666666667 -0.001771875 0.20413
357 1 -0.031303125 0.000116666666667 -0.000590625 0.335943
358 1 -0.031303125 0.000116666666667 0.000590625 0.20794
359 1 -0.031303125 0.000116666666667 0.001771875 0.338582
360 1 -0.031303125 0.000116666666667 0.002953125 0.211757
361 1 -0.031303125 0.000116666666667 0.004134375 0.338804
362 1 -0.031303125 0.000116666666667 0.005315625 0.214986
363 1 -0.031303125 0.000116666666667 0.006496875 0.336109
364 1 -0.031303125 0.000116666666667 0.007678125 0.217521
365 1 -0.031303125 0.000116666666667 0.008859375 0.331854
366 1 -0.031303125 0.000116666666667 0.010040625 0.219364
367 1 -0.031303125 0.000116666666667 0.011221875 0.328358
368 1 -0.031303125 0.000116666666667 0.012403125 0.221051
369 1 -0.031303125 0.000116666666667 0.013584375 0.326429
370 1 -0.031303125 0.000116666666667 0.014765625 0.223592
371 1 -0.031303125 0.000116666666667 0.015946875 0.32562
372 1 -0.031303125 0.000116666666667 0.017128125 0.227037
373 1 -0.031303125 0.000116666666667 0.018309375 0.327626
374 1 -0.031303125 0.000116666666667 0.019490625 0.231245
375 1 -0.030121875 -0.00261666666667 -0.020671875 0.167269
376 1 -0.030121875 -0.00261666666667 -0.019490625 0.153633
377 1 -0.030121875 -0.00261666666667 -0.018309375 0.170069
378 1 -0.030121875 -0.00261666666667 -0.017128125 0.155136
379 1 -0.030121875 -0.00261666666667 -0.015946875 0.176568
380 1 -0.030121875 -0.00261666666667 -0.014765625 0.157814
381 1 -0.030121875 -0.00261666666667 -0.013584375 0.186177
382 1 -0.030121875 -0.00261666666667 -0.012403125 0.161996
383 1 -0.030121875 -0.00261666666667 -0.011221875 0.200011
384 1 -0.030121875 -0.00261666666667 -0.010040625 0.166438
385 1 -0.030121875 -0.00261666666667 -0.008859375 0.216802
386 1 -0.030121875 -0.00261666666667 -0.007678125 0.173204
387 1 -0.030121875 -0.00261666666667 -0.006496875 0.234742
388 1 -0.030121875 -0.00261666666667 -0.005315625 0.179937
389 1 -0.030121875 -0.00261666666667 -0.004134375 0.251291
390 1 -0.030121875 -0.00261666666667 -0.002953125 0.187638
391 1 -0.030121875 -0.00261666666667 -0.001771875 0.265744
392 1 -0.030121875 -0.00261666666667 -0.000590625 0.193796
393 1 -0.030121875 -0.00261666666667 0.000590625 0.275619
394 1 -0.030121875 -0.00261666666667 0.001771875 0.198193
395 1 -0.030121875 -0.00261666666667 0.002953125 0.2808
396 1 -0.030121875 -0.00261666666667 0.004134375 0.197695
397 1 -0.030121875 -0.00261666666667 0.005315625 0.279456
398 1 -0.030121875 -0.00261666666667 0.006496875 0.194999
399 1 -0.030121875 -0.00261666666667 0.007678125 0.271807
400 1 -0.030121875 -0.00261666666667 0.008859375 0.190439
401 1 -0.030121875 -0.00261666666667 0.010040625 0.259129
402 1 -0.030121875 -0.00261666666667 0.011221875 0.186312
403 1 -0.030121875 -0.00261666666667 0.012403125 0.245198
404 1 -0.030121875 -0.00261666666667 0.013584375 0.180114
405 1 -0.030121875 -0.00261666666667 0.014765625 0.230828
406 1 -0.030121875 -0.00261666666667 0.015946875 0.175541
407 1 -0.030121875 -0.00261666666667 0.017128125 0.218266
408 1 -0.030121875 -0.00261666666667 0.018309375 0.176619
409 1 -0.030121875 -0.00261666666667 0.019490625 0.209694
410 1 -0.030121875 -0.00261666666667 0.020671875 0.180567
411 1 -0.030121875 -0.00125 -0.020671875 0.167269
412 1 -0.030121875 -0.00125 -0.019490625 0.153633
413 1 -0.030121875 -0.00125 -0.018309375 0.170069
414 1 -0.030121875 -0.00125 -0.017128125 0.155136
415 1 -0.030121875 -0.00125 -0.015946875 0.176568
416 1 -0.030121875 -0.00125 -0.014765625 0.157814
417 1 -0.030121875 -0.00125 -0.013584375 0.186177
418 1 -0.030121875 -0.00125 -0.012403125 0.161996
419 1 -0.030121875 -0.00125 -0.011221875 0.200011
420 1 -0.030121875 -0.00125 -0.010040625 0.166438
421 1 -0.030121875 -0.00125 -0.008859375 0.216802
422 1 -0.030121875 -0.00125 -0.007678125 0.173204
423 1 -0.030121875 -0.00125 -0.006496875 0.234742
424 1 -0.030121875 -0.00125 -0.005315625 0.179937
425 1 -0.030121875 -0.00125 -0.004134375 0.251291
426 1 -0.030121875 -0.00125 -0.002953125 0.187638
427 1 -0.030121875 -0.00125 -0.001771875 0.265744
428 1 -0.030121875 -0.00125 -0.000590625 0.193796
429 1 -0.030121875 -0.00125 0.000590625 0.275619
430 1 -0.030121875 -0.00125 0.001771875 0.198193
431 1 -0.030121875 -0.00125 0.002953125 0.2808
432 1 -0.030121875 -0.00125 0.004134375 0.197695
433 1 -0.030121875 -0.00125 0.005315625 0.279456
434 1 -0.030121875 -0.00125 0.006496875 0.194999
435 1 -0.030121875 -0.00125 0.007678125 0.271807
436 1 -0.030121875 -0.00125 0.008859375 0.190439
437 1 -0.030121875 -0.00125 0.010040625 0.259129
438 1 -0.030121875 -0.00125 0.011221875 0.186312
439 1 -0.030121875 -0.00125 0.012403125 0.245198
440 1 -0.030121875 -0.00125 0.013584375 0.180114
441 1 -0.030121875 -0.00125 0.014765625 0.230828
442 1 -0.030121875 -0.00125 0.015946875 0.175541
443 1 -0.030121875 -0.00125 0.017128125 0.218266
444 1 -0.030121875 -0.00125 0.018309375 0.176619
445 1 -0.030121875 -0.00125 0.019490625 0.209694
446 1 -0.030121875 -0.00125 0.020671875 0.180567
447 1 -0.030121875 0.000116666666667 -0.020671875 0.167269
448 1 -0.030121875 0.000116666666667 -0.019490625 0.153633
449 1 -0.030121875 0.000116666666667 -0.018309375 0.170069
450 1 -0.030121875 0.000116666666667 -0.017128125 0.155136
451 1 -0.030121875 0.000116666666667 -0.015946875 0.176568
452 1 -0.030121875 0.000116666666667 -0.014765625 0.157814
453 1 -0.030121875 0.000116666666667 -0.013584375 0.186177
454 1 -0.030121875 0.000116666666667 -0.012403125 0.161996
455 1 -0.030121875 0.000116666666667 -0.011221875 0.200011
456 1 -0.030121875 0.000116666666667 -0.010040625 0.166438
457 1 -0.030121875 0.000116666666667 -0.008859375 0.216802
458 1 -0.030121875 0.000116666666667 -0.007678125 0.173204
459 1 -0.030121875 0.000116666666667 -0.006496875 0.234742
460 1 -0.030121875 0.000116666666667 -0.005315625 0.179937
461 1 -0.030121875 0.000116666666667 -0.004134375 0.251291
462 1 -0.030121875 0.000116666666667 -0.002953125 0.187638
463 1 -0.030121875 0.000116666666667 -0.001771875 0.265744
464 1 -0.030121875 0.000116666666667 -0.000590625 0.193796
465 1 -0.030121875 0.000116666666667 0.000590625 0.275619
466 1 -0.030121875 0.000116666666667 0.001771875 0.198193
467 1 -0.030121875 0.000116666666667 0.002953125 0.2808
468 1 -0.030121875 0.000116666666667 0.004134375 0.197695
469 1 -0.030121875 0.000116666666667 0.005315625 0.279456
470 1 -0.030121875 0.000116666666667 0.006496875 0.194999
471 1 -0.030121875 0.000116666666667 0.007678125 0.271807
472 1 -0.030121875 0.000116666666667 0.008859375 0.190439
473 1 -0.030121875 0.000116666666667 0.010040625 0.259129
474 1 -0.030121875 0.000116666666667 0.011221875 0.186312
475 1 -0.030121875 0.000116666666667 0.012403125 0.245198
476 1 -0.030121875 0.000116666666667 0.013584375 0.180114
477 1 -0.030121875 0.000116666666667 0.014765625 0.230828
478 1 -0.030121875 0.000116666666667 0.015946875 0.175541
479 1 -0.030121875 0.000116666666667 0.017128125 0.218266
480 1 -0.030121875 0.000116666666667 0.018309375 0.176619
481 1 -0.030121875 0.000116666666667 0.019490625 0.209694
482 1 -0.030121875 0.000116666666667 0.020671875 0.180567
483 1 -0.028940625 -0.00261666666667 -0.021853125 0.284875
484 1 -0.028940625 -0.00261666666667 -0.020671875 0.182733
485 1 -0.028940625 -0.00261666666667 -0.019490625 0.287294
486 1 -0.028940625 -0.00261666666667 -0.018309375 0.182781
487 1 -0.028940625 -0.00261666666667 -0.017128125 0.293784
488 1 -0.028940625 -0.00261666666667 -0.015946875 0.183566
489 1 -0.028940625 -0.00261666666667 -0.014765625 0.303296
490 1 -0.028940625 -0.00261666666667 -0.013584375 0.18554
491 1 -0.028940625 -0.00261666666667 -0.012403125 0.317446
492 1 -0.028940625 -0.00261666666667 -0.011221875 0.189372
493 1 -0.028940625 -0.00261666666667 -0.010040625 0.335065
494 1 -0.028940625 -0.00261666666667 -0.008859375 0.19259
495 1 -0.028940625 -0.00261666666667 -0.007678125 0.353371
496 1 -0.028940625 -0.00261666666667 -0.006496875 0.19673
497 1 -0.028940625 -0.00261666666667 -0.005315625 0.370415
498 1 -0.028940625 -0.00261666666667 -0.004134375 0.201085
499 1 -0.028940625 -0.00261666666667 -0.002953125 0.383936
500 1 -0.028940625 -0.00261666666667 -0.001771875 0.206451
501 1 -0.028940625 -0.00261666666667 -0.000590625 0.393926
502 1 -0.028940625 -0.00261666666667 0.000590625 0.211843
503 1 -0.028940625 -0.00261666666667 0.001771875 0.396128
504 1 -0.028940625 -0.00261666666667 0.002953125 0.216633
505 1 -0.028940625 -0.00261666666667 0.004134375 0.391148
506 1 -0.028940625 -0.00261666666667 0.005315625 0.219767
507 1 -0.028940625 -0.00261666666667 0.006496875 0.379512
508 1 -0.028940625 -0.00261666666667 0.007678125 0.221808
509 1 -0.028940625 -0.00261666666667 0.008859375 0.364544
510 1 -0.028940625 -0.00261666666667 0.010040625 0.221148
511 1 -0.028940625 -0.00261666666667 0.011221875 0.347667
512 1 -0.028940625 -0.00261666666667 0.012403125 0.220292
513 1 -0.028940625 -0.00261666666667 0.013584375 0.331801
514 1 -0.028940625 -0.00261666666667 0.014765625 0.217947
515 1 -0.028940625 -0.00261666666667 0.015946875 0.320581
516 1 -0.028940625 -0.00261666666667 0.017128125 0.21625
517 1 -0.028940625 -0.00261666666667 0.018309375 0.318034
518 1 -0.028940625 -0.00261666666667 0.019490625 0.218377
519 1 -0.028940625 -0.00261666666667 0.020671875 0.319012
520 1 -0.028940625 -0.00261666666667 0.021853125 0.222031
521 1 -0.028940625 -0.00125 -0.021853125 0.284875
522 1 -0.028940625 -0.00125 -0.020671875 0.182733
523 1 -0.028940625 -0.00125 -0.019490625 0.287294
524 1 -0.028940625 -0.00125 -0.018309375 0.182781
525 1 -0.028940625 -0.00125 -0.017128125 0.293784
526 1 -0.028940625 -0.00125 -0.015946875 0.183566
527 1 -0.028940625 -0.00125 -0.014765625 0.303296
528 1 -0.028940625 -0.00125 -0.013584375 0.18554
529 1 -0.028940625 -0.00125 -0.012403125 0.317446
530 1 -0.028940625 -0.00125 -0.011221875 0.189372
531 1 -0.028940625 -0.00125 -0.010040625 0.335065
532 1 -0.028940625 -0.00125 -0.008859375 0.19259
533 1 -0.028940625 -0.00125 -0.007678125 0.353371
534 1 -0.028940625 -0.00125 -0.006496875 0.19673
535 1 -0.028940625 -0.00125 -0.005315625 0.370415
536 1 -0.028940625 -0.00125 -0.004134375 0.201085
537 1 -0.028940625 -0.00125 -0.002953125 0.383936