ITEM: TIMESTEP
0
ITEM: NUMBER OF ATOMS
9240
ITEM: BOX BOUNDS ss ss ss
-3.7007399999999996e-02 3.7007399999999996e-02
-2.0002499999999999e-03 2.5000000000000004e-07
-3.7007399999999996e-02 3.7007399999999996e-02
ITEM: ATOMS id type x y z c_1
0 1 -0.037209375 -0.00261666666667 -0.000590625 0.310036
1 1 -0.037209375 -0.00125 -0.000590625 0.310036
2 1 -0.037209375 0.000116666666667 -0.000590625 0.310036
3 1 -0.036028125 -0.00261666666667 -0.007678125 0.246266
4 1 -0.036028125 -0.00261666666667 -0.006496875 0.158198
5 1 -0.036028125 -0.00261666666667 -0.005315625 0.254204
6 1 -0.036028125 -0.00261666666667 -0.004134375 0.166932
7 1 -0.036028125 -0.00261666666667 -0.002953125 0.261483
8 1 -0.036028125 -0.00261666666667 -0.001771875 0.176443
9 1 -0.036028125 -0.00261666666667 -0.000590625 0.269739
10 1 -0.036028125 -0.00261666666667 0.000590625 0.184072
11 1 -0.036028125 -0.00261666666667 0.001771875 0.274445
12 1 -0.036028125 -0.00261666666667 0.002953125 0.187302
13 1 -0.036028125 -0.00261666666667 0.004134375 0.273032
14 1 -0.036028125 -0.00261666666667 0.005315625 0.181643
15 1 -0.036028125 -0.00261666666667 0.006496875 0.261444
16 1 -0.036028125 -0.00261666666667 0.007678125 0.168507
17 1 -0.036028125 -0.00125 -0.007678125 0.246266
18 1 -0.036028125 -0.00125 -0.006496875 0.158198
19 1 -0.036028125 -0.00125 -0.005315625 0.254204
20 1 -0.036028125 -0.00125 -0.004134375 0.166932
21 1 -0.036028125 -0.00125 -0.002953125 0.261483
22 1 -0.036028125 -0.00125 -0.001771875 0.176443
23 1 -0.036028125 -0.00125 -0.000590625 0.269739
24 1 -0.036028125 -0.00125 0.000590625 0.184072
25 1 -0.036028125 -0.00125 0.001771875 0.274445
26 1 -0.036028125 -0.00125 0.002953125 0.187302
27 1 -0.036028125 -0.00125 0.004134375 0.273032
28 1 -0.036028125 -0.00125 0.005315625 0.181643
29 1 -0.036028125 -0.00125 0.006496875 0.261444
30 1 -0.036028125 -0.00125 0.007678125 0.168507
31 1 -0.036028125 0.000116666666667 -0.007678125 0.246266
32 1 -0.036028125 0.000116666666667 -0.006496875 0.158198
33 1 -0.036028125 0.000116666666667 -0.005315625 0.254204
34 1 -0.036028125 0.000116666666667 -0.004134375 0.166932
35 1 -0.036028125 0.000116666666667 -0.002953125 0.261483
36 1 -0.036028125 0.000116666666667 -0.001771875 0.176443
37 1 -0.036028125 0.000116666666667 -0.000590625 0.269739
38 1 -0.036028125 0.000116666666667 0.000590625 0.184072
39 1 -0.036028125 0.000116666666667 0.001771875 0.274445
40 1 -0.036028125 0.000116666666667 0.002953125 0.187302
41 1 -0.036028125 0.000116666666667 0.004134375 0.273032
42 1 -0.036028125 0.000116666666667 0.005315625 0.181643
43 1 -0.036028125 0.000116666666667 0.006496875 0.261444
44 1 -0.036028125 0.000116666666667 0.007678125 0.168507
45 1 -0.034846875 -0.00261666666667 -0.011221875 0.144491
46 1 -0.034846875 -0.00261666666667 -0.010040625 0.193615
47 1 -0.034846875 -0.00261666666667 -0.008859375 0.162089
48 1 -0.034846875 -0.00261666666667 -0.007678125 0.205822
49 1 -0.034846875 -0.00261666666667 -0.006496875 0.175118
50 1 -0.034846875 -0.00261666666667 -0.005315625 0.214463
51 1 -0.034846875 -0.00261666666667 -0.004134375 0.187437
52 1 -0.034846875 -0.00261666666667 -0.002953125 0.222976
53 1 -0.034846875 -0.00261666666667 -0.001771875 0.200745
54 1 -0.034846875 -0.00261666666667 -0.000590625 0.230724
55 1 -0.034846875 -0.00261666666667 0.000590625 0.212766
56 1 -0.034846875 -0.00261666666667 0.001771875 0.235089
57 1 -0.034846875 -0.00261666666667 0.002953125 0.219138
58 1 -0.034846875 -0.00261666666667 0.004134375 0.230953
59 1 -0.034846875 -0.00261666666667 0.005315625 0.21658
60 1 -0.034846875 -0.00261666666667 0.006496875 0.218465
61 1 -0.034846875 -0.00261666666667 0.007678125 0.199888
62 1 -0.034846875 -0.00261666666667 0.008859375 0.195097
63 1 -0.034846875 -0.00261666666667 0.010040625 0.172696
64 1 -0.034846875 -0.00261666666667 0.011221875 0.168113
65 1 -0.034846875 -0.00125 -0.011221875 0.144491
66 1 -0.034846875 -0.00125 -0.010040625 0.193615
67 1 -0.034846875 -0.00125 -0.008859375 0.162089
68 1 -0.034846875 -0.00125 -0.007678125 0.205822
69 1 -0.034846875 -0.00125 -0.006496875 0.175118
70 1 -0.034846875 -0.00125 -0.005315625 0.214463
71 1 -0.034846875 -0.00125 -0.004134375 0.187437
72 1 -0.034846875 -0.00125 -0.002953125 0.222976
73 1 -0.034846875 -0.00125 -0.001771875 0.200745
74 1 -0.034846875 -0.00125 -0.000590625 0.230724
75 1 -0.034846875 -0.00125 0.000590625 0.212766
76 1 -0.034846875 -0.00125 0.001771875 0.235089
77 1 -0.034846875 -0.00125 0.002953125 0.219138
78 1 -0.034846875 -0.00125 0.004134375 0.230953
79 1 -0.034846875 -0.00125 0.005315625 0.21658
80 1 -0.034846875 -0.00125 0.006496875 0.218465
81 1 -0.034846875 -0.00125 0.007678125 0.199888
82 1 -0.034846875 -0.00125 0.008859375 0.195097
83 1 -0.034846875 -0.00125 0.010040625 0.172696
84 1 -0.034846875 -0.00125 0.011221875 0.168113
85 1 -0.034846875 0.000116666666667 -0.011221875 0.144491
86 1 -0.034846875 0.000116666666667 -0.010040625 0.193615
87 1 -0.034846875 0.000116666666667 -0.008859375 0.162089
88 1 -0.034846875 0.000116666666667 -0.007678125 0.205822
89 1 -0.034846875 0.000116666666667 -0.006496875 0.175118
90 1 -0.034846875 0.000116666666667 -0.005315625 0.214463
91 1 -0.034846875 0.000116666666667 -0.004134375 0.187437
92 1 -0.034846875 0.000116666666667 -0.002953125 0.222976
93 1 -0.034846875 0.000116666666667 -0.001771875 0.200745
94 1 -0.034846875 0.000116666666667 -0.000590625 0.230724
95 1 -0.034846875 0.000116666666667 0.000590625 0.212766
96 1 -0.034846875 0.000116666666667 0.001771875 0.235089
97 1 -0.034846875 0.000116666666667 0.002953125 0.219138
98 1 -0.034846875 0.000116666666667 0.004134375 0.230953
99 1 -0.034846875 0.000116666666667 0.005315625 0.21658
100 1 -0.034846875 0.000116666666667 0.006496875 0.218465
101 1 -0.034846875 0.000116666666667 0.007678125 0.199888
102 1 -0.034846875 0.000116666666667 0.008859375 0.195097
103 1 -0.034846875 0.000116666666667 0.010040625 0.172696
104 1 -0.034846875 0.000116666666667 0.011221875 0.168113
105 1 -0.033665625 -0.00261666666667 -0.013584375 0.191652
106 1 -0.033665625 -0.00261666666667 -0.012403125 0.29136
107 1 -0.033665625 -0.00261666666667 -0.011221875 0.232312
108 1 -0.033665625 -0.00261666666667 -0.010040625 0.320788
109 1 -0.033665625 -0.00261666666667 -0.008859375 0.262044
110 1 -0.033665625 -0.00261666666667 -0.007678125 0.339199
111 1 -0.033665625 -0.00261666666667 -0.006496875 0.284159
112 1 -0.033665625 -0.00261666666667 -0.005315625 0.353906
113 1 -0.033665625 -0.00261666666667 -0.004134375 0.30314
114 1 -0.033665625 -0.00261666666667 -0.002953125 0.367045
115 1 -0.033665625 -0.00261666666667 -0.001771875 0.322896
116 1 -0.033665625 -0.00261666666667 -0.000590625 0.381616
117 1 -0.033665625 -0.00261666666667 0.000590625 0.338536
118 1 -0.033665625 -0.00261666666667 0.001771875 0.390303
119 1 -0.033665625 -0.00261666666667 0.002953125 0.346146
120 1 -0.033665625 -0.00261666666667 0.004134375 0.390595
121 1 -0.033665625 -0.00261666666667 0.005315625 0.337502
122 1 -0.033665625 -0.00261666666667 0.006496875 0.373868
123 1 -0.033665625 -0.00261666666667 0.007678125 0.311962
124 1 -0.033665625 -0.00261666666667 0.008859375 0.342417
125 1 -0.033665625 -0.00261666666667 0.010040625 0.267598
126 1 -0.033665625 -0.00261666666667 0.011221875 0.296031
127 1 -0.033665625 -0.00261666666667 0.012403125 0.214051
128 1 -0.033665625 -0.00261666666667 0.013584375 0.243977
129 1 -0.033665625 -0.00125 -0.013584375 0.191652
130 1 -0.033665625 -0.00125 -0.012403125 0.29136
131 1 -0.033665625 -0.00125 -0.011221875 0.232312
132 1 -0.033665625 -0.00125 -0.010040625 0.320788
133 1 -0.033665625 -0.00125 -0.008859375 0.262044
134 1 -0.033665625 -0.00125 -0.007678125 0.339199
135 1 -0.033665625 -0.00125 -0.006496875 0.284159
136 1 -0.033665625 -0.00125 -0.005315625 0.353906
137 1 -0.033665625 -0.00125 -0.004134375 0.30314
138 1 -0.033665625 -0.00125 -0.002953125 0.367045
139 1 -0.033665625 -0.00125 -0.001771875 0.322896
140 1 -0.033665625 -0.00125 -0.000590625 0.381616
141 1 -0.033665625 -0.00125 0.000590625 0.338536
142 1 -0.033665625 -0.00125 0.001771875 0.390303
143 1 -0.033665625 -0.00125 0.002953125 0.346146
144 1 -0.033665625 -0.00125 0.004134375 0.390595
145 1 -0.033665625 -0.00125 0.005315625 0.337502
146 1 -0.033665625 -0.00125 0.006496875 0.373868
147 1 -0.033665625 -0.00125 0.007678125 0.311962
148 1 -0.033665625 -0.00125 0.008859375 0.342417
149 1 -0.033665625 -0.00125 0.010040625 0.267598
150 1 -0.033665625 -0.00125 0.011221875 0.296031
151 1 -0.033665625 -0.00125 0.012403125 0.214051
152 1 -0.033665625 -0.00125 0.013584375 0.243977
153 1 -0.033665625 0.000116666666667 -0.013584375 0.191652
154 1 -0.033665625 0.000116666666667 -0.012403125 0.29136
155 1 -0.033665625 0.000116666666667 -0.011221875 0.232312
156 1 -0.033665625 0.000116666666667 -0.010040625 0.320788
157 1 -0.033665625 0.000116666666667 -0.008859375 0.262044
158 1 -0.033665625 0.000116666666667 -0.007678125 0.339199
159 1 -0.033665625 0.000116666666667 -0.006496875 0.284159
160 1 -0.033665625 0.000116666666667 -0.005315625 0.353906
161 1 -0.033665625 0.000116666666667 -0.004134375 0.30314
162 1 -0.033665625 0.000116666666667 -0.002953125 0.367045
163 1 -0.033665625 0.000116666666667 -0.001771875 0.322896
164 1 -0.033665625 0.000116666666667 -0.000590625 0.381616
165 1 -0.033665625 0.000116666666667 0.000590625 0.338536
166 1 -0.033665625 0.000116666666667 0.001771875 0.390303
167 1 -0.033665625 0.000116666666667 0.002953125 0.346146
168 1 -0.033665625 0.000116666666667 0.004134375 0.390595
169 1 -0.033665625 0.000116666666667 0.005315625 0.337502
170 1 -0.033665625 0.000116666666667 0.006496875 0.373868
171 1 -0.033665625 0.000116666666667 0.007678125 0.311962
172 1 -0.033665625 0.000116666666667 0.008859375 0.342417
173 1 -0.033665625 0.000116666666667 0.010040625 0.267598
174 1 -0.033665625 0.000116666666667 0.011221875 0.296031
175 1 -0.033665625 0.000116666666667 0.012403125 0.214051
176 1 -0.033665625 0.000116666666667 0.013584375 0.243977
177 1 -0.032484375 -0.00261666666667 -0.018309375 0.142435
178 1 -0.032484375 -0.00261666666667 -0.017128125 0.199811
179 1 -0.032484375 -0.00261666666667 -0.015946875 0.208749
180 1 -0.032484375 -0.00261666666667 -0.014765625 0.253427
181 1 -0.032484375 -0.00261666666667 -0.013584375 0.273953
182 1 -0.032484375 -0.00261666666667 -0.012403125 0.301319
183 1 -0.032484375 -0.00261666666667 -0.011221875 0.326337
184 1 -0.032484375 -0.00261666666667 -0.010040625 0.330681
185 1 -0.032484375 -0.00261666666667 -0.008859375 0.363323
186 1 -0.032484375 -0.00261666666667 -0.007678125 0.35114
187 1 -0.032484375 -0.00261666666667 -0.006496875 0.386265
188 1 -0.032484375 -0.00261666666667 -0.005315625 0.364118
189 1 -0.032484375 -0.00261666666667 -0.004134375 0.406855
190 1 -0.032484375 -0.00261666666667 -0.002953125 0.3742
191 1 -0.032484375 -0.00261666666667 -0.001771875 0.428245
192 1 -0.032484375 -0.00261666666667 -0.000590625 0.384063
193 1 -0.032484375 -0.00261666666667 0.000590625 0.446553
194 1 -0.032484375 -0.00261666666667 0.001771875 0.390438
195 1 -0.032484375 -0.00261666666667 0.002953125 0.458812
196 1 -0.032484375 -0.00261666666667 0.004134375 0.387382
197 1 -0.032484375 -0.00261666666667 0.005315625 0.463194
198 1 -0.032484375 -0.00261666666667 0.006496875 0.37339
199 1 -0.032484375 -0.00261666666667 0.007678125 0.441448
200 1 -0.032484375 -0.00261666666667 0.008859375 0.338799
201 1 -0.032484375 -0.00261666666667 0.010040625 0.391166
202 1 -0.032484375 -0.00261666666667 0.011221875 0.28738
203 1 -0.032484375 -0.00261666666667 0.012403125 0.319813
204 1 -0.032484375 -0.00261666666667 0.013584375 0.225729
205 1 -0.032484375 -0.00261666666667 0.014765625 0.237326
206 1 -0.032484375 -0.00261666666667 0.015946875 0.168538
207 1 -0.032484375 -0.00261666666667 0.017128125 0.165734
208 1 -0.032484375 -0.00261666666667 0.018309375 0.125173
209 1 -0.032484375 -0.00125 -0.018309375 0.142435
210 1 -0.032484375 -0.00125 -0.017128125 0.199811
211 1 -0.032484375 -0.00125 -0.015946875 0.208749
212 1 -0.032484375 -0.00125 -0.014765625 0.253427
213 1 -0.032484375 -0.00125 -0.013584375 0.273953
214 1 -0.032484375 -0.00125 -0.012403125 0.301319
215 1 -0.032484375 -0.00125 -0.011221875 0.326337
216 1 -0.032484375 -0.00125 -0.010040625 0.330681
217 1 -0.032484375 -0.00125 -0.008859375 0.363323
218 1 -0.032484375 -0.00125 -0.007678125 0.35114
219 1 -0.032484375 -0.00125 -0.006496875 0.386265
220 1 -0.032484375 -0.00125 -0.005315625 0.364118
221 1 -0.032484375 -0.00125 -0.004134375 0.406855
222 1 -0.032484375 -0.00125 -0.002953125 0.3742
223 1 -0.032484375 -0.00125 -0.001771875 0.428245
224 1 -0.032484375 -0.00125 -0.000590625 0.384063
225 1 -0.032484375 -0.00125 0.000590625 0.446553
226 1 -0.032484375 -0.00125 0.001771875 0.390438
227 1 -0.032484375 -0.00125 0.002953125 0.458812
228 1 -0.032484375 -0.00125 0.004134375 0.387382
229 1 -0.032484375 -0.00125 0.005315625 0.463194
230 1 -0.032484375 -0.00125 0.006496875 0.37339
231 1 -0.032484375 -0.00125 0.007678125 0.441448
232 1 -0.032484375 -0.00125 0.008859375 0.338799
233 1 -0.032484375 -0.00125 0.010040625 0.391166
234 1 -0.032484375 -0.00125 0.011221875 0.28738
235 1 -0.032484375 -0.00125 0.012403125 0.319813
236 1 -0.032484375 -0.00125 0.013584375 0.225729
237 1 -0.032484375 -0.00125 0.014765625 0.237326
238 1 -0.032484375 -0.00125 0.015946875 0.168538
239 1 -0.032484375 -0.00125 0.017128125 0.165734
240 1 -0.032484375 -0.00125 0.018309375 0.125173
241 1 -0.032484375 0.000116666666667 -0.018309375 0.142435
242 1 -0.032484375 0.000116666666667 -0.017128125 0.199811
243 1 -0.032484375 0.000116666666667 -0.015946875 0.208749
244 1 -0.032484375 0.000116666666667 -0.014765625 0.253427
245 1 -0.032484375 0.000116666666667 -0.013584375 0.273953
246 1 -0.032484375 0.000116666666667 -0.012403125 0.301319
247 1 -0.032484375 0.000116666666667 -0.011221875 0.326337
248 1 -0.032484375 0.000116666666667 -0.010040625 0.330681
249 1 -0.032484375 0.000116666666667 -0.008859375 0.363323
250 1 -0.032484375 0.000116666666667 -0.007678125 0.35114
251 1 -0.032484375 0.000116666666667 -0.006496875 0.386265
252 1 -0.032484375 0.000116666666667 -0.005315625 0.364118
253 1 -0.032484375 0.000116666666667 -0.004134375 0.406855
254 1 -0.032484375 0.000116666666667 -0.002953125 0.3742
255 1 -0.032484375 0.000116666666667 -0.001771875 0.428245
256 1 -0.032484375 0.000116666666667 -0.000590625 0.384063
257 1 -0.032484375 0.000116666666667 0.000590625 0.446553
258 1 -0.032484375 0.000116666666667 0.001771875 0.390438
259 1 -0.032484375 0.000116666666667 0.002953125 0.458812
260 1 -0.032484375 0.000116666666667 0.004134375 0.387382
261 1 -0.032484375 0.000116666666667 0.005315625 0.463194
262 1 -0.032484375 0.000116666666667 0.006496875 0.37339
263 1 -0.032484375 0.000116666666667 0.007678125 0.441448
264 1 -0.032484375 0.000116666666667 0.008859375 0.338799
265 1 -0.032484375 0.000116666666667 0.010040625 0.391166
266 1 -0.032484375 0.000116666666667 0.011221875 0.28738
267 1 -0.032484375 0.000116666666667 0.012403125 0.319813
268 1 -0.032484375 0.000116666666667 0.013584375 0.225729
269 1 -0.032484375 0.000116666666667 0.014765625 0.237326
270 1 -0.032484375 0.000116666666667 0.015946875 0.168538
271 1 -0.032484375 0.000116666666667 0.017128125 0.165734
272 1 -0.032484375 0.000116666666667 0.018309375 0.125173
273 1 -0.031303125 -0.00261666666667 -0.019490625 0.25837
274 1 -0.031303125 -0.00261666666667 -0.018309375 0.241505
275 1 -0.031303125 -0.00261666666667 -0.017128125 0.335275
276 1 -0.031303125 -0.00261666666667 -0.015946875 0.341099
277 1 -0.031303125 -0.00261666666667 -0.014765625 0.406258
278 1 -0.031303125 -0.00261666666667 -0.013584375 0.424929
279 1 -0.031303125 -0.00261666666667 -0.012403125 0.456709
280 1 -0.031303125 -0.00261666666667 -0.011221875 0.481139
281 1 -0.031303125 -0.00261666666667 -0.010040625 0.484532
282 1 -0.031303125 -0.00261666666667 -0.008859375 0.512547
283 1 -0.031303125 -0.00261666666667 -0.007678125 0.499943
284 1 -0.031303125 -0.00261666666667 -0.006496875 0.531732
285 1 -0.031303125 -0.00261666666667 -0.005315625 0.50951
286 1 -0.031303125 -0.00261666666667 -0.004134375 0.543101
287 1 -0.031303125 -0.00261666666667 -0.002953125 0.516401
288 1 -0.031303125 -0.00261666666667 -0.001771875 0.553167
289 1 -0.031303125 -0.00261666666667 -0.000590625 0.525963
290 1 -0.031303125 -0.00261666666667 0.000590625 0.56198
291 1 -0.031303125 -0.00261666666667 0.001771875 0.533511
292 1 -0.031303125 -0.00261666666667 0.002953125 0.571773
293 1 -0.031303125 -0.00261666666667 0.004134375 0.538826
294 1 -0.031303125 -0.00261666666667 0.005315625 0.574731
295 1 -0.031303125 -0.00261666666667 0.006496875 0.534008
296 1 -0.031303125 -0.00261666666667 0.007678125 0.564072
297 1 -0.031303125 -0.00261666666667 0.008859375 0.513278
298 1 -0.031303125 -0.00261666666667 0.010040625 0.52586
299 1 -0.031303125 -0.00261666666667 0.011221875 0.466168
300 1 -0.031303125 -0.00261666666667 0.012403125 0.455672
301 1 -0.031303125 -0.00261666666667 0.013584375 0.398986
302 1 -0.031303125 -0.00261666666667 0.014765625 0.357945
303 1 -0.031303125 -0.00261666666667 0.015946875 0.315165
304 1 -0.031303125 -0.00261666666667 0.017128125 0.257654
305 1 -0.031303125 -0.00261666666667 0.018309375 0.24007
306 1 -0.031303125 -0.00261666666667 0.019490625 0.179524
307 1 -0.031303125 -0.00125 -0.019490625 0.25837
308 1 -0.031303125 -0.00125 -0.018309375 0.241505
309 1 -0.031303125 -0.00125 -0.017128125 0.335275
310 1 -0.031303125 -0.00125 -0.015946875 0.341099
311 1 -0.031303125 -0.00125 -0.014765625 0.406258
312 1 -0.031303125 -0.00125 -0.013584375 0.424929
313 1 -0.031303125 -0.00125 -0.012403125 0.456709
314 1 -0.031303125 -0.00125 -0.011221875 0.481139
315 1 -0.031303125 -0.00125 -0.010040625 0.484532
316 1 -0.031303125 -0.00125 -0.008859375 0.512547
317 1 -0.031303125 -0.00125 -0.007678125 0.499943
318 1 -0.031303125 -0.00125 -0.006496875 0.531732
319 1 -0.031303125 -0.00125 -0.005315625 0.50951
320 1 -0.031303125 -0.00125 -0.004134375 0.543101
321 1 -0.031303125 -0.00125 -0.002953125 0.516401
322 1 -0.031303125 -0.00125 -0.001771875 0.553167
323 1 -0.031303125 -0.00125 -0.000590625 0.525963
324 1 -0.031303125 -0.00125 0.000590625 0.56198
325 1 -0.031303125 -0.00125 0.001771875 0.533511
326 1 -0.031303125 -0.00125 0.002953125 0.571773
327 1 -0.031303125 -0.00125 0.004134375 0.538826
328 1 -0.031303125 -0.00125 0.005315625 0.574731
329 1 -0.031303125 -0.00125 0.006496875 0.534008
330 1 -0.031303125 -0.00125 0.007678125 0.564072
331 1 -0.031303125 -0.00125 0.008859375 0.513278
332 1 -0.031303125 -0.00125 0.010040625 0.52586
333 1 -0.031303125 -0.00125 0.011221875 0.466168
334 1 -0.031303125 -0.00125 0.012403125 0.455672
335 1 -0.031303125 -0.00125 0.013584375 0.398986
336 1 -0.031303125 -0.00125 0.014765625 0.357945
337 1 -0.031303125 -0.00125 0.015946875 0.315165
338 1 -0.031303125 -0.00125 0.017128125 0.257654
339 1 -0.031303125 -0.00125 0.018309375 0.24007
340 1 -0.031303125 -0.00125 0.019490625 0.179524
341 1 -0.031303125 0.000116666666667 -0.019490625 0.25837
342 1 -0.031303125 0.000116666666667 -0.018309375 0.241505
343 1 -0.031303125 0.000116666666667 -0.017128125 0.335275
344 1 -0.031303125 0.000116666666667 -0.015946875 0.341099
345 1 -0.031303125 0.000116666666667 -0.014765625 0.406258
346 1 -0.031303125 0.000116666666667 -0.013584375 0.424929
347 1 -0.031303125 0.000116666666667 -0.012403125 0.456709
348 1 -0.031303125 0.000116666666667 -0.011221875 0.481139
349 1 -0.031303125 0.000116666666667 -0.010040625 0.484532
350 1 -0.031303125 0.000116666666667 -0.008859375 0.512547
351 1 -0.031303125 0.000116666666667 -0.007678125 0.499943
352 1 -0.031303125 0.000116666666667 -0.006496875 0.531732
353 1 -0.031303125 0.000116666666667 -0.005315625 0.50951
354 1 -0.031303125 0.000116666666667 -0.004134375 0.543101
355 1 -0.031303125 0.000116666666667 -0.002953125 0.516401
356 1 -0.031303125 0.000116666666667 -0.001771875 0.553167
357 1 -0.031303125 0.000116666666667 -0.000590625 0.525963
358 1 -0.031303125 0.000116666666667 0.000590625 0.56198
359 1 -0.031303125 0.000116666666667 0.001771875 0.533511
360 1 -0.031303125 0.000116666666667 0.002953125 0.571773
361 1 -0.031303125 0.000116666666667 0.004134375 0.538826
362 1 -0.031303125 0.000116666666667 0.005315625 0.574731
363 1 -0.031303125 0.000116666666667 0.006496875 0.534008
364 1 -0.031303125 0.000116666666667 0.007678125 0.564072
365 1 -0.031303125 0.000116666666667 0.008859375 0.513278
366 1 -0.031303125 0.000116666666667 0.010040625 0.52586
367 1 -0.031303125 0.000116666666667 0.011221875 0.466168
368 1 -0.031303125 0.000116666666667 0.012403125 0.455672
369 1 -0.031303125 0.000116666666667 0.013584375 0.398986
370 1 -0.031303125 0.000116666666667 0.014765625 0.357945
371 1 -0.031303125 0.000116666666667 0.015946875 0.315165
372 1 -0.031303125 0.000116666666667 0.017128125 0.257654
373 1 -0.031303125 0.000116666666667 0.018309375 0.24007
374 1 -0.031303125 0.000116666666667 0.019490625 0.179524
375 1 -0.030121875 -0.00261666666667 -0.020671875 0.207945
376 1 -0.030121875 -0.00261666666667 -0.019490625 0.27165
377 1 -0.030121875 -0.00261666666667 -0.018309375 0.3109
378 1 -0.030121875 -0.00261666666667 -0.017128125 0.364249
379 1 -0.030121875 -0.00261666666667 -0.015946875 0.404774
380 1 -0.030121875 -0.00261666666667 -0.014765625 0.427403
381 1 -0.030121875 -0.00261666666667 -0.013584375 0.474913
382 1 -0.030121875 -0.00261666666667 -0.012403125 0.4704
383 1 -0.030121875 -0.00261666666667 -0.011221875 0.514095
384 1 -0.030121875 -0.00261666666667 -0.010040625 0.490207
385 1 -0.030121875 -0.00261666666667 -0.008859375 0.534245
386 1 -0.030121875 -0.00261666666667 -0.007678125 0.502542
387 1 -0.030121875 -0.00261666666667 -0.006496875 0.541534
388 1 -0.030121875 -0.00261666666667 -0.005315625 0.509572
389 1 -0.030121875 -0.00261666666667 -0.004134375 0.546661
390 1 -0.030121875 -0.00261666666667 -0.002953125 0.514484
391 1 -0.030121875 -0.00261666666667 -0.001771875 0.554361
392 1 -0.030121875 -0.00261666666667 -0.000590625 0.520328
393 1 -0.030121875 -0.00261666666667 0.000590625 0.566628
394 1 -0.030121875 -0.00261666666667 0.001771875 0.526496
395 1 -0.030121875 -0.00261666666667 0.002953125 0.581325
396 1 -0.030121875 -0.00261666666667 0.004134375 0.527734
397 1 -0.030121875 -0.00261666666667 0.005315625 0.598774
398 1 -0.030121875 -0.00261666666667 0.006496875 0.52385
399 1 -0.030121875 -0.00261666666667 0.007678125 0.601954
400 1 -0.030121875 -0.00261666666667 0.008859375 0.499564
401 1 -0.030121875 -0.00261666666667 0.010040625 0.584808
402 1 -0.030121875 -0.00261666666667 0.011221875 0.46
403 1 -0.030121875 -0.00261666666667 0.012403125 0.541632
404 1 -0.030121875 -0.00261666666667 0.013584375 0.395805
405 1 -0.030121875 -0.00261666666667 0.014765625 0.455326
406 1 -0.030121875 -0.00261666666667 0.015946875 0.310161
407 1 -0.030121875 -0.00261666666667 0.017128125 0.334665
408 1 -0.030121875 -0.00261666666667 0.018309375 0.227533
409 1 -0.030121875 -0.00261666666667 0.019490625 0.230788
410 1 -0.030121875 -0.00261666666667 0.020671875 0.168596
411 1 -0.030121875 -0.00125 -0.020671875 0.207945
412 1 -0.030121875 -0.00125 -0.019490625 0.27165
413 1 -0.030121875 -0.00125 -0.018309375 0.3109
414 1 -0.030121875 -0.00125 -0.017128125 0.364249
415 1 -0.030121875 -0.00125 -0.015946875 0.404774
416 1 -0.030121875 -0.00125 -0.014765625 0.427403
417 1 -0.030121875 -0.00125 -0.013584375 0.474913
418 1 -0.030121875 -0.00125 -0.012403125 0.4704
419 1 -0.030121875 -0.00125 -0.011221875 0.514095
420 1 -0.030121875 -0.00125 -0.010040625 0.490207
421 1 -0.030121875 -0.00125 -0.008859375 0.534245
422 1 -0.030121875 -0.00125 -0.007678125 0.502542
423 1 -0.030121875 -0.00125 -0.006496875 0.541534
424 1 -0.030121875 -0.00125 -0.005315625 0.509572
425 1 -0.030121875 -0.00125 -0.004134375 0.546661
426 1 -0.030121875 -0.00125 -0.002953125 0.514484
427 1 -0.030121875 -0.00125 -0.001771875 0.554361
428 1 -0.030121875 -0.00125 -0.000590625 0.520328
429 1 -0.030121875 -0.00125 0.000590625 0.566628
430 1 -0.030121875 -0.00125 0.001771875 0.526496
431 1 -0.030121875 -0.00125 0.002953125 0.581325
432 1 -0.030121875 -0.00125 0.004134375 0.527734
433 1 -0.030121875 -0.00125 0.005315625 0.598774
434 1 -0.030121875 -0.00125 0.006496875 0.52385
435 1 -0.030121875 -0.00125 0.007678125 0.601954
436 1 -0.030121875 -0.00125 0.008859375 0.499564
437 1 -0.030121875 -0.00125 0.010040625 0.584808
438 1 -0.030121875 -0.00125 0.011221875 0.46
439 1 -0.030121875 -0.00125 0.012403125 0.541632
440 1 -0.030121875 -0.00125 0.013584375 0.395805
441 1 -0.030121875 -0.00125 0.014765625 0.455326
442 1 -0.030121875 -0.00125 0.015946875 0.310161
443 1 -0.030121875 -0.00125 0.017128125 0.334665
444 1 -0.030121875 -0.00125 0.018309375 0.227533
445 1 -0.030121875 -0.00125 0.019490625 0.230788
446 1 -0.030121875 -0.00125 0.020671875 0.168596
447 1 -0.030121875 0.000116666666667 -0.020671875 0.207945
448 1 -0.030121875 0.000116666666667 -0.019490625 0.27165
449 1 -0.030121875 0.000116666666667 -0.018309375 0.3109
450 1 -0.030121875 0.000116666666667 -0.017128125 0.364249
451 1 -0.030121875 0.000116666666667 -0.015946875 0.404774
452 1 -0.030121875 0.000116666666667 -0.014765625 0.427403
453 1 -0.030121875 0.000116666666667 -0.013584375 0.474913
454 1 -0.030121875 0.000116666666667 -0.012403125 0.4704
455 1 -0.030121875 0.000116666666667 -0.011221875 0.514095
456 1 -0.030121875 0.000116666666667 -0.010040625 0.490207
457 1 -0.030121875 0.000116666666667 -0.008859375 0.534245
458 1 -0.030121875 0.000116666666667 -0.007678125 0.502542
459 1 -0.030121875 0.000116666666667 -0.006496875 0.541534
460 1 -0.030121875 0.000116666666667 -0.005315625 0.509572
461 1 -0.030121875 0.000116666666667 -0.004134375 0.546661
462 1 -0.030121875 0.000116666666667 -0.002953125 0.514484
463 1 -0.030121875 0.000116666666667 -0.001771875 0.554361
464 1 -0.030121875 0.000116666666667 -0.000590625 0.520328
465 1 -0.030121875 0.000116666666667 0.000590625 0.566628
466 1 -0.030121875 0.000116666666667 0.001771875 0.526496
467 1 -0.030121875 0.000116666666667 0.002953125 0.581325
468 1 -0.030121875 0.000116666666667 0.004134375 0.527734
469 1 -0.030121875 0.000116666666667 0.005315625 0.598774
470 1 -0.030121875 0.000116666666667 0.006496875 0.52385
471 1 -0.030121875 0.000116666666667 0.007678125 0.601954
472 1 -0.030121875 0.000116666666667 0.008859375 0.499564
473 1 -0.030121875 0.000116666666667 0.010040625 0.584808
474 1 -0.030121875 0.000116666666667 0.011221875 0.46
475 1 -0.030121875 0.000116666666667 0.012403125 0.541632
476 1 -0.030121875 0.000116666666667 0.013584375 0.395805
477 1 -0.030121875 0.000116666666667 0.014765625 0.455326
478 1 -0.030121875 0.000116666666667 0.015946875 0.310161
479 1 -0.030121875 0.000116666666667 0.017128125 0.334665
480 1 -0.030121875 0.000116666666667 0.018309375 0.227533
481 1 -0.030121875 0.000116666666667 0.019490625 0.230788
482 1 -0.030121875 0.000116666666667 0.020671875 0.168596
483 1 -0.028940625 -0.00261666666667 -0.021853125 0.294136
484 1 -0.028940625 -0.00261666666667 -0.020671875 0.291504
485 1 -0.028940625 -0.00261666666667 -0.019490625 0.39039
486 1 -0.028940625 -0.00261666666667 -0.018309375 0.416987
487 1 -0.028940625 -0.00261666666667 -0.017128125 0.471164
488 1 -0.028940625 -0.00261666666667 -0.015946875 0.508345
489 1 -0.028940625 -0.00261666666667 -0.014765625 0.513349
490 1 -0.028940625 -0.00261666666667 -0.013584375 0.544647
491 1 -0.028940625 -0.00261666666667 -0.012403125 0.535022
492 1 -0.028940625 -0.00261666666667 -0.011221875 0.56227
493 1 -0.028940625 -0.00261666666667 -0.010040625 0.546842
494 1 -0.028940625 -0.00261666666667 -0.008859375 0.570002
495 1 -0.028940625 -0.00261666666667 -0.007678125 0.551417
496 1 -0.028940625 -0.00261666666667 -0.006496875 0.574051
497 1 -0.028940625 -0.00261666666667 -0.005315625 0.555014
498 1 -0.028940625 -0.00261666666667 -0.004134375 0.575581
499 1 -0.028940625 -0.00261666666667 -0.002953125 0.558534
500 1 -0.028940625 -0.00261666666667 -0.001771875 0.580832
501 1 -0.028940625 -0.00261666666667 -0.000590625 0.567542
502 1 -0.028940625 -0.00261666666667 0.000590625 0.589196
503 1 -0.028940625 -0.00261666666667 0.001771875 0.576432
504 1 -0.028940625 -0.00261666666667 0.002953125 0.600202
505 1 -0.028940625 -0.00261666666667 0.004134375 0.584095
506 1 -0.028940625 -0.00261666666667 0.005315625 0.607338
507 1 -0.028940625 -0.00261666666667 0.006496875 0.583749
508 1 -0.028940625 -0.00261666666667 0.007678125 0.609723
509 1 -0.028940625 -0.00261666666667 0.008859375 0.573809
510 1 -0.028940625 -0.00261666666667 0.010040625 0.603354
511 1 -0.028940625 -0.00261666666667 0.011221875 0.550797
512 1 -0.028940625 -0.00261666666667 0.012403125 0.588155
513 1 -0.028940625 -0.00261666666667 0.013584375 0.514248
514 1 -0.028940625 -0.00261666666667 0.014765625 0.53197
515 1 -0.028940625 -0.00261666666667 0.015946875 0.446079
516 1 -0.028940625 -0.00261666666667 0.017128125 0.432679
517 1 -0.028940625 -0.00261666666667 0.018309375 0.356753
518 1 -0.028940625 -0.00261666666667 0.019490625 0.321341
519 1 -0.028940625 -0.00261666666667 0.020671875 0.279483
520 1 -0.028940625 -0.00261666666667 0.021853125 0.232906
521 1 -0.028940625 -0.00125 -0.021853125 0.294136
522 1 -0.028940625 -0.00125 -0.020671875 0.291504
523 1 -0.028940625 -0.00125 -0.019490625 0.39039
524 1 -0.028940625 -0.00125 -0.018309375 0.416987
525 1 -0.028940625 -0.00125 -0.017128125 0.471164
526 1 -0.028940625 -0.00125 -0.015946875 0.508345
527 1 -0.028940625 -0.00125 -0.014765625 0.513349
528 1 -0.028940625 -0.00125 -0.013584375 0.544647
529 1 -0.028940625 -0.00125 -0.012403125 0.535022
530 1 -0.028940625 -0.00125 -0.011221875 0.56227
531 1 -0.028940625 -0.00125 -0.010040625 0.546842
532 1 -0.028940625 -0.00125 -0.008859375 0.570002
533 1 -0.028940625 -0.00125 -0.007678125 0.551417
534 1 -0.028940625 -0.00125 -0.006496875 0.574051
535 1 -0.028940625 -0.00125 -0.005315625 0.555014
536 1 -0.028940625 -0.00125 -0.004134375 0.575581
537 1 -0.028940625 -0.00125 -0.002953125 0.558534
538 1 -0.028940625 -0.00125 -0.001771875 0.580832