ITEM: TIMESTEP
0
ITEM: NUMBER OF ATOMS
9240
ITEM: BOX BOUNDS ss ss ss
-3.7007399999999996e-02 3.7007399999999996e-02
-2.0002499999999999e-03 2.5000000000000004e-07
-3.7007399999999996e-02 3.7007399999999996e-02
ITEM: ATOMS id type x y z c_1
0 1 -0.037209375 -0.00261666666667 -0.000590625 0.308309
1 1 -0.037209375 -0.00125 -0.000590625 0.308309
2 1 -0.037209375 0.000116666666667 -0.000590625 0.308309
3 1 -0.036028125 -0.00261666666667 -0.007678125 0.305471
4 1 -0.036028125 -0.00261666666667 -0.006496875 0.203257
5 1 -0.036028125 -0.00261666666667 -0.005315625 0.327874
6 1 -0.036028125 -0.00261666666667 -0.004134375 0.228757
7 1 -0.036028125 -0.00261666666667 -0.002953125 0.349653
8 1 -0.036028125 -0.00261666666667 -0.001771875 0.255569
9 1 -0.036028125 -0.00261666666667 -0.000590625 0.371639
10 1 -0.036028125 -0.00261666666667 0.000590625 0.277597
11 1 -0.036028125 -0.00261666666667 0.001771875 0.385678
12 1 -0.036028125 -0.00261666666667 0.002953125 0.286301
13 1 -0.036028125 -0.00261666666667 0.004134375 0.383655
14 1 -0.036028125 -0.00261666666667 0.005315625 0.273151
15 1 -0.036028125 -0.00261666666667 0.006496875 0.362012
16 1 -0.036028125 -0.00261666666667 0.007678125 0.24165
17 1 -0.036028125 -0.00125 -0.007678125 0.305471
18 1 -0.036028125 -0.00125 -0.006496875 0.203257
19 1 -0.036028125 -0.00125 -0.005315625 0.327874
20 1 -0.036028125 -0.00125 -0.004134375 0.228757
21 1 -0.036028125 -0.00125 -0.002953125 0.349653
22 1 -0.036028125 -0.00125 -0.001771875 0.255569
23 1 -0.036028125 -0.00125 -0.000590625 0.371639
24 1 -0.036028125 -0.00125 0.000590625 0.277597
25 1 -0.036028125 -0.00125 0.001771875 0.385678
26 1 -0.036028125 -0.00125 0.002953125 0.286301
27 1 -0.036028125 -0.00125 0.004134375 0.383655
28 1 -0.036028125 -0.00125 0.005315625 0.273151
29 1 -0.036028125 -0.00125 0.006496875 0.362012
30 1 -0.036028125 -0.00125 0.007678125 0.24165
31 1 -0.036028125 0.000116666666667 -0.007678125 0.305471
32 1 -0.036028125 0.000116666666667 -0.006496875 0.203257
33 1 -0.036028125 0.000116666666667 -0.005315625 0.327874
34 1 -0.036028125 0.000116666666667 -0.004134375 0.228757
35 1 -0.036028125 0.000116666666667 -0.002953125 0.349653
36 1 -0.036028125 0.000116666666667 -0.001771875 0.255569
37 1 -0.036028125 0.000116666666667 -0.000590625 0.371639
38 1 -0.036028125 0.000116666666667 0.000590625 0.277597
39 1 -0.036028125 0.000116666666667 0.001771875 0.385678
40 1 -0.036028125 0.000116666666667 0.002953125 0.286301
41 1 -0.036028125 0.000116666666667 0.004134375 0.383655
42 1 -0.036028125 0.000116666666667 0.005315625 0.273151
43 1 -0.036028125 0.000116666666667 0.006496875 0.362012
44 1 -0.036028125 0.000116666666667 0.007678125 0.24165
45 1 -0.034846875 -0.00261666666667 -0.011221875 0.152798
46 1 -0.034846875 -0.00261666666667 -0.010040625 0.185635
47 1 -0.034846875 -0.00261666666667 -0.008859375 0.182131
48 1 -0.034846875 -0.00261666666667 -0.007678125 0.207173
49 1 -0.034846875 -0.00261666666667 -0.006496875 0.210753
50 1 -0.034846875 -0.00261666666667 -0.005315625 0.228484
51 1 -0.034846875 -0.00261666666667 -0.004134375 0.243474
52 1 -0.034846875 -0.00261666666667 -0.002953125 0.251098
53 1 -0.034846875 -0.00261666666667 -0.001771875 0.278371
54 1 -0.034846875 -0.00261666666667 -0.000590625 0.272232
55 1 -0.034846875 -0.00261666666667 0.000590625 0.310214
56 1 -0.034846875 -0.00261666666667 0.001771875 0.286827
57 1 -0.034846875 -0.00261666666667 0.002953125 0.32613
58 1 -0.034846875 -0.00261666666667 0.004134375 0.280834
59 1 -0.034846875 -0.00261666666667 0.005315625 0.319386
60 1 -0.034846875 -0.00261666666667 0.006496875 0.257098
61 1 -0.034846875 -0.00261666666667 0.007678125 0.283552
62 1 -0.034846875 -0.00261666666667 0.008859375 0.216083
63 1 -0.034846875 -0.00261666666667 0.010040625 0.228581
64 1 -0.034846875 -0.00261666666667 0.011221875 0.172058
65 1 -0.034846875 -0.00125 -0.011221875 0.152798
66 1 -0.034846875 -0.00125 -0.010040625 0.185635
67 1 -0.034846875 -0.00125 -0.008859375 0.182131
68 1 -0.034846875 -0.00125 -0.007678125 0.207173
69 1 -0.034846875 -0.00125 -0.006496875 0.210753
70 1 -0.034846875 -0.00125 -0.005315625 0.228484
71 1 -0.034846875 -0.00125 -0.004134375 0.243474
72 1 -0.034846875 -0.00125 -0.002953125 0.251098
73 1 -0.034846875 -0.00125 -0.001771875 0.278371
74 1 -0.034846875 -0.00125 -0.000590625 0.272232
75 1 -0.034846875 -0.00125 0.000590625 0.310214
76 1 -0.034846875 -0.00125 0.001771875 0.286827
77 1 -0.034846875 -0.00125 0.002953125 0.32613
78 1 -0.034846875 -0.00125 0.004134375 0.280834
79 1 -0.034846875 -0.00125 0.005315625 0.319386
80 1 -0.034846875 -0.00125 0.006496875 0.257098
81 1 -0.034846875 -0.00125 0.007678125 0.283552
82 1 -0.034846875 -0.00125 0.008859375 0.216083
83 1 -0.034846875 -0.00125 0.010040625 0.228581
84 1 -0.034846875 -0.00125 0.011221875 0.172058
85 1 -0.034846875 0.000116666666667 -0.011221875 0.152798
86 1 -0.034846875 0.000116666666667 -0.010040625 0.185635
87 1 -0.034846875 0.000116666666667 -0.008859375 0.182131
88 1 -0.034846875 0.000116666666667 -0.007678125 0.207173
89 1 -0.034846875 0.000116666666667 -0.006496875 0.210753
90 1 -0.034846875 0.000116666666667 -0.005315625 0.228484
91 1 -0.034846875 0.000116666666667 -0.004134375 0.243474
92 1 -0.034846875 0.000116666666667 -0.002953125 0.251098
93 1 -0.034846875 0.000116666666667 -0.001771875 0.278371
94 1 -0.034846875 0.000116666666667 -0.000590625 0.272232
95 1 -0.034846875 0.000116666666667 0.000590625 0.310214
96 1 -0.034846875 0.000116666666667 0.001771875 0.286827
97 1 -0.034846875 0.000116666666667 0.002953125 0.32613
98 1 -0.034846875 0.000116666666667 0.004134375 0.280834
99 1 -0.034846875 0.000116666666667 0.005315625 0.319386
100 1 -0.034846875 0.000116666666667 0.006496875 0.257098
101 1 -0.034846875 0.000116666666667 0.007678125 0.283552
102 1 -0.034846875 0.000116666666667 0.008859375 0.216083
103 1 -0.034846875 0.000116666666667 0.010040625 0.228581
104 1 -0.034846875 0.000116666666667 0.011221875 0.172058
105 1 -0.033665625 -0.00261666666667 -0.013584375 0.197871
106 1 -0.033665625 -0.00261666666667 -0.012403125 0.335102
107 1 -0.033665625 -0.00261666666667 -0.011221875 0.256719
108 1 -0.033665625 -0.00261666666667 -0.010040625 0.380759
109 1 -0.033665625 -0.00261666666667 -0.008859375 0.30535
110 1 -0.033665625 -0.00261666666667 -0.007678125 0.413476
111 1 -0.033665625 -0.00261666666667 -0.006496875 0.34769
112 1 -0.033665625 -0.00261666666667 -0.005315625 0.444236
113 1 -0.033665625 -0.00261666666667 -0.004134375 0.388274
114 1 -0.033665625 -0.00261666666667 -0.002953125 0.473453
115 1 -0.033665625 -0.00261666666667 -0.001771875 0.429754
116 1 -0.033665625 -0.00261666666667 -0.000590625 0.502254
117 1 -0.033665625 -0.00261666666667 0.000590625 0.462854
118 1 -0.033665625 -0.00261666666667 0.001771875 0.51992
119 1 -0.033665625 -0.00261666666667 0.002953125 0.477382
120 1 -0.033665625 -0.00261666666667 0.004134375 0.518302
121 1 -0.033665625 -0.00261666666667 0.005315625 0.462095
122 1 -0.033665625 -0.00261666666667 0.006496875 0.494126
123 1 -0.033665625 -0.00261666666667 0.007678125 0.416992
124 1 -0.033665625 -0.00261666666667 0.008859375 0.446674
125 1 -0.033665625 -0.00261666666667 0.010040625 0.341546
126 1 -0.033665625 -0.00261666666667 0.011221875 0.374664
127 1 -0.033665625 -0.00261666666667 0.012403125 0.251088
128 1 -0.033665625 -0.00261666666667 0.013584375 0.293403
129 1 -0.033665625 -0.00125 -0.013584375 0.197871
130 1 -0.033665625 -0.00125 -0.012403125 0.335102
131 1 -0.033665625 -0.00125 -0.011221875 0.256719
132 1 -0.033665625 -0.00125 -0.010040625 0.380759
133 1 -0.033665625 -0.00125 -0.008859375 0.30535
134 1 -0.033665625 -0.00125 -0.007678125 0.413476
135 1 -0.033665625 -0.00125 -0.006496875 0.34769
136 1 -0.033665625 -0.00125 -0.005315625 0.444236
137 1 -0.033665625 -0.00125 -0.004134375 0.388274
138 1 -0.033665625 -0.00125 -0.002953125 0.473453
139 1 -0.033665625 -0.00125 -0.001771875 0.429754
140 1 -0.033665625 -0.00125 -0.000590625 0.502254
141 1 -0.033665625 -0.00125 0.000590625 0.462854
142 1 -0.033665625 -0.00125 0.001771875 0.51992
143 1 -0.033665625 -0.00125 0.002953125 0.477382
144 1 -0.033665625 -0.00125 0.004134375 0.518302
145 1 -0.033665625 -0.00125 0.005315625 0.462095
146 1 -0.033665625 -0.00125 0.006496875 0.494126
147 1 -0.033665625 -0.00125 0.007678125 0.416992
148 1 -0.033665625 -0.00125 0.008859375 0.446674
149 1 -0.033665625 -0.00125 0.010040625 0.341546
150 1 -0.033665625 -0.00125 0.011221875 0.374664
151 1 -0.033665625 -0.00125 0.012403125 0.251088
152 1 -0.033665625 -0.00125 0.013584375 0.293403
153 1 -0.033665625 0.000116666666667 -0.013584375 0.197871
154 1 -0.033665625 0.000116666666667 -0.012403125 0.335102
155 1 -0.033665625 0.000116666666667 -0.011221875 0.256719
156 1 -0.033665625 0.000116666666667 -0.010040625 0.380759
157 1 -0.033665625 0.000116666666667 -0.008859375 0.30535
158 1 -0.033665625 0.000116666666667 -0.007678125 0.413476
159 1 -0.033665625 0.000116666666667 -0.006496875 0.34769
160 1 -0.033665625 0.000116666666667 -0.005315625 0.444236
161 1 -0.033665625 0.000116666666667 -0.004134375 0.388274
162 1 -0.033665625 0.000116666666667 -0.002953125 0.473453
163 1 -0.033665625 0.000116666666667 -0.001771875 0.429754
164 1 -0.033665625 0.000116666666667 -0.000590625 0.502254
165 1 -0.033665625 0.000116666666667 0.000590625 0.462854
166 1 -0.033665625 0.000116666666667 0.001771875 0.51992
167 1 -0.033665625 0.000116666666667 0.002953125 0.477382
168 1 -0.033665625 0.000116666666667 0.004134375 0.518302
169 1 -0.033665625 0.000116666666667 0.005315625 0.462095
170 1 -0.033665625 0.000116666666667 0.006496875 0.494126
171 1 -0.033665625 0.000116666666667 0.007678125 0.416992
172 1 -0.033665625 0.000116666666667 0.008859375 0.446674
173 1 -0.033665625 0.000116666666667 0.010040625 0.341546
174 1 -0.033665625 0.000116666666667 0.011221875 0.374664
175 1 -0.033665625 0.000116666666667 0.012403125 0.251088
176 1 -0.033665625 0.000116666666667 0.013584375 0.293403
177 1 -0.032484375 -0.00261666666667 -0.018309375 0.107954
178 1 -0.032484375 -0.00261666666667 -0.017128125 0.165196
179 1 -0.032484375 -0.00261666666667 -0.015946875 0.173216
180 1 -0.032484375 -0.00261666666667 -0.014765625 0.228235
181 1 -0.032484375 -0.00261666666667 -0.013584375 0.251107
182 1 -0.032484375 -0.00261666666667 -0.012403125 0.287319
183 1 -0.032484375 -0.00261666666667 -0.011221875 0.320514
184 1 -0.032484375 -0.00261666666667 -0.010040625 0.329007
185 1 -0.032484375 -0.00261666666667 -0.008859375 0.369517
186 1 -0.032484375 -0.00261666666667 -0.007678125 0.357039
187 1 -0.032484375 -0.00261666666667 -0.006496875 0.406027
188 1 -0.032484375 -0.00261666666667 -0.005315625 0.381454
189 1 -0.032484375 -0.00261666666667 -0.004134375 0.443607
190 1 -0.032484375 -0.00261666666667 -0.002953125 0.405778
191 1 -0.032484375 -0.00261666666667 -0.001771875 0.482026
192 1 -0.032484375 -0.00261666666667 -0.000590625 0.428651
193 1 -0.032484375 -0.00261666666667 0.000590625 0.516812
194 1 -0.032484375 -0.00261666666667 0.001771875 0.444761
195 1 -0.032484375 -0.00261666666667 0.002953125 0.536237
196 1 -0.032484375 -0.00261666666667 0.004134375 0.43822
197 1 -0.032484375 -0.00261666666667 0.005315625 0.538036
198 1 -0.032484375 -0.00261666666667 0.006496875 0.414788
199 1 -0.032484375 -0.00261666666667 0.007678125 0.510623
200 1 -0.032484375 -0.00261666666667 0.008859375 0.366299
201 1 -0.032484375 -0.00261666666667 0.010040625 0.450545
202 1 -0.032484375 -0.00261666666667 0.011221875 0.299966
203 1 -0.032484375 -0.00261666666667 0.012403125 0.349444
204 1 -0.032484375 -0.00261666666667 0.013584375 0.214863
205 1 -0.032484375 -0.00261666666667 0.014765625 0.2311
206 1 -0.032484375 -0.00261666666667 0.015946875 0.140531
207 1 -0.032484375 -0.00261666666667 0.017128125 0.138424
208 1 -0.032484375 -0.00261666666667 0.018309375 0.0915472
209 1 -0.032484375 -0.00125 -0.018309375 0.107954
210 1 -0.032484375 -0.00125 -0.017128125 0.165196
211 1 -0.032484375 -0.00125 -0.015946875 0.173216
212 1 -0.032484375 -0.00125 -0.014765625 0.228235
213 1 -0.032484375 -0.00125 -0.013584375 0.251107
214 1 -0.032484375 -0.00125 -0.012403125 0.287319
215 1 -0.032484375 -0.00125 -0.011221875 0.320514
216 1 -0.032484375 -0.00125 -0.010040625 0.329007
217 1 -0.032484375 -0.00125 -0.008859375 0.369517
218 1 -0.032484375 -0.00125 -0.007678125 0.357039
219 1 -0.032484375 -0.00125 -0.006496875 0.406027
220 1 -0.032484375 -0.00125 -0.005315625 0.381454
221 1 -0.032484375 -0.00125 -0.004134375 0.443607
222 1 -0.032484375 -0.00125 -0.002953125 0.405778
223 1 -0.032484375 -0.00125 -0.001771875 0.482026
224 1 -0.032484375 -0.00125 -0.000590625 0.428651
225 1 -0.032484375 -0.00125 0.000590625 0.516812
226 1 -0.032484375 -0.00125 0.001771875 0.444761
227 1 -0.032484375 -0.00125 0.002953125 0.536237
228 1 -0.032484375 -0.00125 0.004134375 0.43822
229 1 -0.032484375 -0.00125 0.005315625 0.538036
230 1 -0.032484375 -0.00125 0.006496875 0.414788
231 1 -0.032484375 -0.00125 0.007678125 0.510623
232 1 -0.032484375 -0.00125 0.008859375 0.366299
233 1 -0.032484375 -0.00125 0.010040625 0.450545
234 1 -0.032484375 -0.00125 0.011221875 0.299966
235 1 -0.032484375 -0.00125 0.012403125 0.349444
236 1 -0.032484375 -0.00125 0.013584375 0.214863
237 1 -0.032484375 -0.00125 0.014765625 0.2311
238 1 -0.032484375 -0.00125 0.015946875 0.140531
239 1 -0.032484375 -0.00125 0.017128125 0.138424
240 1 -0.032484375 -0.00125 0.018309375 0.0915472
241 1 -0.032484375 0.000116666666667 -0.018309375 0.107954
242 1 -0.032484375 0.000116666666667 -0.017128125 0.165196
243 1 -0.032484375 0.000116666666667 -0.015946875 0.173216
244 1 -0.032484375 0.000116666666667 -0.014765625 0.228235
245 1 -0.032484375 0.000116666666667 -0.013584375 0.251107
246 1 -0.032484375 0.000116666666667 -0.012403125 0.287319
247 1 -0.032484375 0.000116666666667 -0.011221875 0.320514
248 1 -0.032484375 0.000116666666667 -0.010040625 0.329007
249 1 -0.032484375 0.000116666666667 -0.008859375 0.369517
250 1 -0.032484375 0.000116666666667 -0.007678125 0.357039
251 1 -0.032484375 0.000116666666667 -0.006496875 0.406027
252 1 -0.032484375 0.000116666666667 -0.005315625 0.381454
253 1 -0.032484375 0.000116666666667 -0.004134375 0.443607
254 1 -0.032484375 0.000116666666667 -0.002953125 0.405778
255 1 -0.032484375 0.000116666666667 -0.001771875 0.482026
256 1 -0.032484375 0.000116666666667 -0.000590625 0.428651
257 1 -0.032484375 0.000116666666667 0.000590625 0.516812
258 1 -0.032484375 0.000116666666667 0.001771875 0.444761
259 1 -0.032484375 0.000116666666667 0.002953125 0.536237
260 1 -0.032484375 0.000116666666667 0.004134375 0.43822
261 1 -0.032484375 0.000116666666667 0.005315625 0.538036
262 1 -0.032484375 0.000116666666667 0.006496875 0.414788
263 1 -0.032484375 0.000116666666667 0.007678125 0.510623
264 1 -0.032484375 0.000116666666667 0.008859375 0.366299
265 1 -0.032484375 0.000116666666667 0.010040625 0.450545
266 1 -0.032484375 0.000116666666667 0.011221875 0.299966
267 1 -0.032484375 0.000116666666667 0.012403125 0.349444
268 1 -0.032484375 0.000116666666667 0.013584375 0.214863
269 1 -0.032484375 0.000116666666667 0.014765625 0.2311
270 1 -0.032484375 0.000116666666667 0.015946875 0.140531
271 1 -0.032484375 0.000116666666667 0.017128125 0.138424
272 1 -0.032484375 0.000116666666667 0.018309375 0.0915472
273 1 -0.031303125 -0.00261666666667 -0.019490625 0.263277
274 1 -0.031303125 -0.00261666666667 -0.018309375 0.231081
275 1 -0.031303125 -0.00261666666667 -0.017128125 0.356817
276 1 -0.031303125 -0.00261666666667 -0.015946875 0.349072
277 1 -0.031303125 -0.00261666666667 -0.014765625 0.441242
278 1 -0.031303125 -0.00261666666667 -0.013584375 0.450796
279 1 -0.031303125 -0.00261666666667 -0.012403125 0.502578
280 1 -0.031303125 -0.00261666666667 -0.011221875 0.519855
281 1 -0.031303125 -0.00261666666667 -0.010040625 0.540255
282 1 -0.031303125 -0.00261666666667 -0.008859375 0.553181
283 1 -0.031303125 -0.00261666666667 -0.007678125 0.559872
284 1 -0.031303125 -0.00261666666667 -0.006496875 0.572623
285 1 -0.031303125 -0.00261666666667 -0.005315625 0.578996
286 1 -0.031303125 -0.00261666666667 -0.004134375 0.588653
287 1 -0.031303125 -0.00261666666667 -0.002953125 0.596075
288 1 -0.031303125 -0.00261666666667 -0.001771875 0.60738
289 1 -0.031303125 -0.00261666666667 -0.000590625 0.615459
290 1 -0.031303125 -0.00261666666667 0.000590625 0.62487
291 1 -0.031303125 -0.00261666666667 0.001771875 0.628778
292 1 -0.031303125 -0.00261666666667 0.002953125 0.638922
293 1 -0.031303125 -0.00261666666667 0.004134375 0.631962
294 1 -0.031303125 -0.00261666666667 0.005315625 0.64099
295 1 -0.031303125 -0.00261666666667 0.006496875 0.620906
296 1 -0.031303125 -0.00261666666667 0.007678125 0.631927
297 1 -0.031303125 -0.00261666666667 0.008859375 0.594653
298 1 -0.031303125 -0.00261666666667 0.010040625 0.60222
299 1 -0.031303125 -0.00261666666667 0.011221875 0.546465
300 1 -0.031303125 -0.00261666666667 0.012403125 0.523049
301 1 -0.031303125 -0.00261666666667 0.013584375 0.4612
302 1 -0.031303125 -0.00261666666667 0.014765625 0.391463
303 1 -0.031303125 -0.00261666666667 0.015946875 0.355666
304 1 -0.031303125 -0.00261666666667 0.017128125 0.255201
305 1 -0.031303125 -0.00261666666667 0.018309375 0.257811
306 1 -0.031303125 -0.00261666666667 0.019490625 0.156052
307 1 -0.031303125 -0.00125 -0.019490625 0.263277
308 1 -0.031303125 -0.00125 -0.018309375 0.231081
309 1 -0.031303125 -0.00125 -0.017128125 0.356817
310 1 -0.031303125 -0.00125 -0.015946875 0.349072
311 1 -0.031303125 -0.00125 -0.014765625 0.441242
312 1 -0.031303125 -0.00125 -0.013584375 0.450796
313 1 -0.031303125 -0.00125 -0.012403125 0.502578
314 1 -0.031303125 -0.00125 -0.011221875 0.519855
315 1 -0.031303125 -0.00125 -0.010040625 0.540255
316 1 -0.031303125 -0.00125 -0.008859375 0.553181
317 1 -0.031303125 -0.00125 -0.007678125 0.559872
318 1 -0.031303125 -0.00125 -0.006496875 0.572623
319 1 -0.031303125 -0.00125 -0.005315625 0.578996
320 1 -0.031303125 -0.00125 -0.004134375 0.588653
321 1 -0.031303125 -0.00125 -0.002953125 0.596075
322 1 -0.031303125 -0.00125 -0.001771875 0.60738
323 1 -0.031303125 -0.00125 -0.000590625 0.615459
324 1 -0.031303125 -0.00125 0.000590625 0.62487
325 1 -0.031303125 -0.00125 0.001771875 0.628778
326 1 -0.031303125 -0.00125 0.002953125 0.638922
327 1 -0.031303125 -0.00125 0.004134375 0.631962
328 1 -0.031303125 -0.00125 0.005315625 0.64099
329 1 -0.031303125 -0.00125 0.006496875 0.620906
330 1 -0.031303125 -0.00125 0.007678125 0.631927
331 1 -0.031303125 -0.00125 0.008859375 0.594653
332 1 -0.031303125 -0.00125 0.010040625 0.60222
333 1 -0.031303125 -0.00125 0.011221875 0.546465
334 1 -0.031303125 -0.00125 0.012403125 0.523049
335 1 -0.031303125 -0.00125 0.013584375 0.4612
336 1 -0.031303125 -0.00125 0.014765625 0.391463
337 1 -0.031303125 -0.00125 0.015946875 0.355666
338 1 -0.031303125 -0.00125 0.017128125 0.255201
339 1 -0.031303125 -0.00125 0.018309375 0.257811
340 1 -0.031303125 -0.00125 0.019490625 0.156052
341 1 -0.031303125 0.000116666666667 -0.019490625 0.263277
342 1 -0.031303125 0.000116666666667 -0.018309375 0.231081
343 1 -0.031303125 0.000116666666667 -0.017128125 0.356817
344 1 -0.031303125 0.000116666666667 -0.015946875 0.349072
345 1 -0.031303125 0.000116666666667 -0.014765625 0.441242
346 1 -0.031303125 0.000116666666667 -0.013584375 0.450796
347 1 -0.031303125 0.000116666666667 -0.012403125 0.502578
348 1 -0.031303125 0.000116666666667 -0.011221875 0.519855
349 1 -0.031303125 0.000116666666667 -0.010040625 0.540255
350 1 -0.031303125 0.000116666666667 -0.008859375 0.553181
351 1 -0.031303125 0.000116666666667 -0.007678125 0.559872
352 1 -0.031303125 0.000116666666667 -0.006496875 0.572623
353 1 -0.031303125 0.000116666666667 -0.005315625 0.578996
354 1 -0.031303125 0.000116666666667 -0.004134375 0.588653
355 1 -0.031303125 0.000116666666667 -0.002953125 0.596075
356 1 -0.031303125 0.000116666666667 -0.001771875 0.60738
357 1 -0.031303125 0.000116666666667 -0.000590625 0.615459
358 1 -0.031303125 0.000116666666667 0.000590625 0.62487
359 1 -0.031303125 0.000116666666667 0.001771875 0.628778
360 1 -0.031303125 0.000116666666667 0.002953125 0.638922
361 1 -0.031303125 0.000116666666667 0.004134375 0.631962
362 1 -0.031303125 0.000116666666667 0.005315625 0.64099
363 1 -0.031303125 0.000116666666667 0.006496875 0.620906
364 1 -0.031303125 0.000116666666667 0.007678125 0.631927
365 1 -0.031303125 0.000116666666667 0.008859375 0.594653
366 1 -0.031303125 0.000116666666667 0.010040625 0.60222
367 1 -0.031303125 0.000116666666667 0.011221875 0.546465
368 1 -0.031303125 0.000116666666667 0.012403125 0.523049
369 1 -0.031303125 0.000116666666667 0.013584375 0.4612
370 1 -0.031303125 0.000116666666667 0.014765625 0.391463
371 1 -0.031303125 0.000116666666667 0.015946875 0.355666
372 1 -0.031303125 0.000116666666667 0.017128125 0.255201
373 1 -0.031303125 0.000116666666667 0.018309375 0.257811
374 1 -0.031303125 0.000116666666667 0.019490625 0.156052
375 1 -0.030121875 -0.00261666666667 -0.020671875 0.1699
376 1 -0.030121875 -0.00261666666667 -0.019490625 0.243907
377 1 -0.030121875 -0.00261666666667 -0.018309375 0.275877
378 1 -0.030121875 -0.00261666666667 -0.017128125 0.345167
379 1 -0.030121875 -0.00261666666667 -0.015946875 0.380282
380 1 -0.030121875 -0.00261666666667 -0.014765625 0.416966
381 1 -0.030121875 -0.00261666666667 -0.013584375 0.462883
382 1 -0.030121875 -0.00261666666667 -0.012403125 0.472366
383 1 -0.030121875 -0.00261666666667 -0.011221875 0.51584
384 1 -0.030121875 -0.00261666666667 -0.010040625 0.502979
385 1 -0.030121875 -0.00261666666667 -0.008859375 0.543433
386 1 -0.030121875 -0.00261666666667 -0.007678125 0.51921
387 1 -0.030121875 -0.00261666666667 -0.006496875 0.559806
388 1 -0.030121875 -0.00261666666667 -0.005315625 0.533353
389 1 -0.030121875 -0.00261666666667 -0.004134375 0.578793
390 1 -0.030121875 -0.00261666666667 -0.002953125 0.546454
391 1 -0.030121875 -0.00261666666667 -0.001771875 0.600578
392 1 -0.030121875 -0.00261666666667 -0.000590625 0.561214
393 1 -0.030121875 -0.00261666666667 0.000590625 0.625034
394 1 -0.030121875 -0.00261666666667 0.001771875 0.573645
395 1 -0.030121875 -0.00261666666667 0.002953125 0.644463
396 1 -0.030121875 -0.00261666666667 0.004134375 0.571625
397 1 -0.030121875 -0.00261666666667 0.005315625 0.658899
398 1 -0.030121875 -0.00261666666667 0.006496875 0.559689
399 1 -0.030121875 -0.00261666666667 0.007678125 0.657035
400 1 -0.030121875 -0.00261666666667 0.008859375 0.529857
401 1 -0.030121875 -0.00261666666667 0.010040625 0.637734
402 1 -0.030121875 -0.00261666666667 0.011221875 0.485957
403 1 -0.030121875 -0.00261666666667 0.012403125 0.580822
404 1 -0.030121875 -0.00261666666667 0.013584375 0.401459
405 1 -0.030121875 -0.00261666666667 0.014765625 0.47947
406 1 -0.030121875 -0.00261666666667 0.015946875 0.302833
407 1 -0.030121875 -0.00261666666667 0.017128125 0.342499
408 1 -0.030121875 -0.00261666666667 0.018309375 0.2044
409 1 -0.030121875 -0.00261666666667 0.019490625 0.211069
410 1 -0.030121875 -0.00261666666667 0.020671875 0.136753
411 1 -0.030121875 -0.00125 -0.020671875 0.1699
412 1 -0.030121875 -0.00125 -0.019490625 0.243907
413 1 -0.030121875 -0.00125 -0.018309375 0.275877
414 1 -0.030121875 -0.00125 -0.017128125 0.345167
415 1 -0.030121875 -0.00125 -0.015946875 0.380282
416 1 -0.030121875 -0.00125 -0.014765625 0.416966
417 1 -0.030121875 -0.00125 -0.013584375 0.462883
418 1 -0.030121875 -0.00125 -0.012403125 0.472366
419 1 -0.030121875 -0.00125 -0.011221875 0.51584
420 1 -0.030121875 -0.00125 -0.010040625 0.502979
421 1 -0.030121875 -0.00125 -0.008859375 0.543433
422 1 -0.030121875 -0.00125 -0.007678125 0.51921
423 1 -0.030121875 -0.00125 -0.006496875 0.559806
424 1 -0.030121875 -0.00125 -0.005315625 0.533353
425 1 -0.030121875 -0.00125 -0.004134375 0.578793
426 1 -0.030121875 -0.00125 -0.002953125 0.546454
427 1 -0.030121875 -0.00125 -0.001771875 0.600578
428 1 -0.030121875 -0.00125 -0.000590625 0.561214
429 1 -0.030121875 -0.00125 0.000590625 0.625034
430 1 -0.030121875 -0.00125 0.001771875 0.573645
431 1 -0.030121875 -0.00125 0.002953125 0.644463
432 1 -0.030121875 -0.00125 0.004134375 0.571625
433 1 -0.030121875 -0.00125 0.005315625 0.658899
434 1 -0.030121875 -0.00125 0.006496875 0.559689
435 1 -0.030121875 -0.00125 0.007678125 0.657035
436 1 -0.030121875 -0.00125 0.008859375 0.529857
437 1 -0.030121875 -0.00125 0.010040625 0.637734
438 1 -0.030121875 -0.00125 0.011221875 0.485957
439 1 -0.030121875 -0.00125 0.012403125 0.580822
440 1 -0.030121875 -0.00125 0.013584375 0.401459
441 1 -0.030121875 -0.00125 0.014765625 0.47947
442 1 -0.030121875 -0.00125 0.015946875 0.302833
443 1 -0.030121875 -0.00125 0.017128125 0.342499
444 1 -0.030121875 -0.00125 0.018309375 0.2044
445 1 -0.030121875 -0.00125 0.019490625 0.211069
446 1 -0.030121875 -0.00125 0.020671875 0.136753
447 1 -0.030121875 0.000116666666667 -0.020671875 0.1699
448 1 -0.030121875 0.000116666666667 -0.019490625 0.243907
449 1 -0.030121875 0.000116666666667 -0.018309375 0.275877
450 1 -0.030121875 0.000116666666667 -0.017128125 0.345167
451 1 -0.030121875 0.000116666666667 -0.015946875 0.380282
452 1 -0.030121875 0.000116666666667 -0.014765625 0.416966
453 1 -0.030121875 0.000116666666667 -0.013584375 0.462883
454 1 -0.030121875 0.000116666666667 -0.012403125 0.472366
455 1 -0.030121875 0.000116666666667 -0.011221875 0.51584
456 1 -0.030121875 0.000116666666667 -0.010040625 0.502979
457 1 -0.030121875 0.000116666666667 -0.008859375 0.543433
458 1 -0.030121875 0.000116666666667 -0.007678125 0.51921
459 1 -0.030121875 0.000116666666667 -0.006496875 0.559806
460 1 -0.030121875 0.000116666666667 -0.005315625 0.533353
461 1 -0.030121875 0.000116666666667 -0.004134375 0.578793
462 1 -0.030121875 0.000116666666667 -0.002953125 0.546454
463 1 -0.030121875 0.000116666666667 -0.001771875 0.600578
464 1 -0.030121875 0.000116666666667 -0.000590625 0.561214
465 1 -0.030121875 0.000116666666667 0.000590625 0.625034
466 1 -0.030121875 0.000116666666667 0.001771875 0.573645
467 1 -0.030121875 0.000116666666667 0.002953125 0.644463
468 1 -0.030121875 0.000116666666667 0.004134375 0.571625
469 1 -0.030121875 0.000116666666667 0.005315625 0.658899
470 1 -0.030121875 0.000116666666667 0.006496875 0.559689
471 1 -0.030121875 0.000116666666667 0.007678125 0.657035
472 1 -0.030121875 0.000116666666667 0.008859375 0.529857
473 1 -0.030121875 0.000116666666667 0.010040625 0.637734
474 1 -0.030121875 0.000116666666667 0.011221875 0.485957
475 1 -0.030121875 0.000116666666667 0.012403125 0.580822
476 1 -0.030121875 0.000116666666667 0.013584375 0.401459
477 1 -0.030121875 0.000116666666667 0.014765625 0.47947
478 1 -0.030121875 0.000116666666667 0.015946875 0.302833
479 1 -0.030121875 0.000116666666667 0.017128125 0.342499
480 1 -0.030121875 0.000116666666667 0.018309375 0.2044
481 1 -0.030121875 0.000116666666667 0.019490625 0.211069
482 1 -0.030121875 0.000116666666667 0.020671875 0.136753
483 1 -0.028940625 -0.00261666666667 -0.021853125 0.317539
484 1 -0.028940625 -0.00261666666667 -0.020671875 0.320799
485 1 -0.028940625 -0.00261666666667 -0.019490625 0.42777
486 1 -0.028940625 -0.00261666666667 -0.018309375 0.450064
487 1 -0.028940625 -0.00261666666667 -0.017128125 0.508177
488 1 -0.028940625 -0.00261666666667 -0.015946875 0.528495
489 1 -0.028940625 -0.00261666666667 -0.014765625 0.559935
490 1 -0.028940625 -0.00261666666667 -0.013584375 0.570522
491 1 -0.028940625 -0.00261666666667 -0.012403125 0.595202
492 1 -0.028940625 -0.00261666666667 -0.011221875 0.60165
493 1 -0.028940625 -0.00261666666667 -0.010040625 0.618606
494 1 -0.028940625 -0.00261666666667 -0.008859375 0.621089
495 1 -0.028940625 -0.00261666666667 -0.007678125 0.632629
496 1 -0.028940625 -0.00261666666667 -0.006496875 0.637429
497 1 -0.028940625 -0.00261666666667 -0.005315625 0.64713
498 1 -0.028940625 -0.00261666666667 -0.004134375 0.650221
499 1 -0.028940625 -0.00261666666667 -0.002953125 0.659575
500 1 -0.028940625 -0.00261666666667 -0.001771875 0.665183
501 1 -0.028940625 -0.00261666666667 -0.000590625 0.675366
502 1 -0.028940625 -0.00261666666667 0.000590625 0.680231
503 1 -0.028940625 -0.00261666666667 0.001771875 0.687058
504 1 -0.028940625 -0.00261666666667 0.002953125 0.692756
505 1 -0.028940625 -0.00261666666667 0.004134375 0.691382
506 1 -0.028940625 -0.00261666666667 0.005315625 0.69612
507 1 -0.028940625 -0.00261666666667 0.006496875 0.68448
508 1 -0.028940625 -0.00261666666667 0.007678125 0.690329
509 1 -0.028940625 -0.00261666666667 0.008859375 0.66579
510 1 -0.028940625 -0.00261666666667 0.010040625 0.673697
511 1 -0.028940625 -0.00261666666667 0.011221875 0.632128
512 1 -0.028940625 -0.00261666666667 0.012403125 0.645426
513 1 -0.028940625 -0.00261666666667 0.013584375 0.582758
514 1 -0.028940625 -0.00261666666667 0.014765625 0.600356
515 1 -0.028940625 -0.00261666666667 0.015946875 0.516034
516 1 -0.028940625 -0.00261666666667 0.017128125 0.503351
517 1 -0.028940625 -0.00261666666667 0.018309375 0.421111
518 1 -0.028940625 -0.00261666666667 0.019490625 0.366823
519 1 -0.028940625 -0.00261666666667 0.020671875 0.326057
520 1 -0.028940625 -0.00261666666667 0.021853125 0.247304
521 1 -0.028940625 -0.00125 -0.021853125 0.317539
522 1 -0.028940625 -0.00125 -0.020671875 0.320799
523 1 -0.028940625 -0.00125 -0.019490625 0.42777
524 1 -0.028940625 -0.00125 -0.018309375 0.450064
525 1 -0.028940625 -0.00125 -0.017128125 0.508177
526 1 -0.028940625 -0.00125 -0.015946875 0.528495
527 1 -0.028940625 -0.00125 -0.014765625 0.559935
528 1 -0.028940625 -0.00125 -0.013584375 0.570522
529 1 -0.028940625 -0.00125 -0.012403125 0.595202
530 1 -0.028940625 -0.00125 -0.011221875 0.60165
531 1 -0.028940625 -0.00125 -0.010040625 0.618606
532 1 -0.028940625 -0.00125 -0.008859375 0.621089
533 1 -0.028940625 -0.00125 -0.007678125 0.632629
534 1 -0.028940625 -0.00125 -0.006496875 0.637429
535 1 -0.028940625 -0.00125 -0.005315625 0.64713
536 1 -0.028940625 -0.00125 -0.004134375 0.650221
537 1 -0.028940625 -0.00125 -0.002953125 0.659575
538 1 -0.028940625 -0.00125 -0.001771875 0.665183