ITEM: TIMESTEP
0
ITEM: NUMBER OF ATOMS
9240
ITEM: BOX BOUNDS ss ss ss
-3.7007399999999996e-02 3.7007399999999996e-02
-2.0002499999999999e-03 2.5000000000000004e-07
-3.7007399999999996e-02 3.7007399999999996e-02
ITEM: ATOMS id type x y z c_1
0 1 -0.037209375 -0.00261666666667 -0.000590625 0.351822
1 1 -0.037209375 -0.00125 -0.000590625 0.351822
2 1 -0.037209375 0.000116666666667 -0.000590625 0.351822
3 1 -0.036028125 -0.00261666666667 -0.007678125 0.35392
4 1 -0.036028125 -0.00261666666667 -0.006496875 0.272949
5 1 -0.036028125 -0.00261666666667 -0.005315625 0.370184
6 1 -0.036028125 -0.00261666666667 -0.004134375 0.28879
7 1 -0.036028125 -0.00261666666667 -0.002953125 0.384308
8 1 -0.036028125 -0.00261666666667 -0.001771875 0.303978
9 1 -0.036028125 -0.00261666666667 -0.000590625 0.397142
10 1 -0.036028125 -0.00261666666667 0.000590625 0.315423
11 1 -0.036028125 -0.00261666666667 0.001771875 0.404077
12 1 -0.036028125 -0.00261666666667 0.002953125 0.319896
13 1 -0.036028125 -0.00261666666667 0.004134375 0.402246
14 1 -0.036028125 -0.00261666666667 0.005315625 0.31328
15 1 -0.036028125 -0.00261666666667 0.006496875 0.390093
16 1 -0.036028125 -0.00261666666667 0.007678125 0.298193
17 1 -0.036028125 -0.00125 -0.007678125 0.35392
18 1 -0.036028125 -0.00125 -0.006496875 0.272949
19 1 -0.036028125 -0.00125 -0.005315625 0.370184
20 1 -0.036028125 -0.00125 -0.004134375 0.28879
21 1 -0.036028125 -0.00125 -0.002953125 0.384308
22 1 -0.036028125 -0.00125 -0.001771875 0.303978
23 1 -0.036028125 -0.00125 -0.000590625 0.397142
24 1 -0.036028125 -0.00125 0.000590625 0.315423
25 1 -0.036028125 -0.00125 0.001771875 0.404077
26 1 -0.036028125 -0.00125 0.002953125 0.319896
27 1 -0.036028125 -0.00125 0.004134375 0.402246
28 1 -0.036028125 -0.00125 0.005315625 0.31328
29 1 -0.036028125 -0.00125 0.006496875 0.390093
30 1 -0.036028125 -0.00125 0.007678125 0.298193
31 1 -0.036028125 0.000116666666667 -0.007678125 0.35392
32 1 -0.036028125 0.000116666666667 -0.006496875 0.272949
33 1 -0.036028125 0.000116666666667 -0.005315625 0.370184
34 1 -0.036028125 0.000116666666667 -0.004134375 0.28879
35 1 -0.036028125 0.000116666666667 -0.002953125 0.384308
36 1 -0.036028125 0.000116666666667 -0.001771875 0.303978
37 1 -0.036028125 0.000116666666667 -0.000590625 0.397142
38 1 -0.036028125 0.000116666666667 0.000590625 0.315423
39 1 -0.036028125 0.000116666666667 0.001771875 0.404077
40 1 -0.036028125 0.000116666666667 0.002953125 0.319896
41 1 -0.036028125 0.000116666666667 0.004134375 0.402246
42 1 -0.036028125 0.000116666666667 0.005315625 0.31328
43 1 -0.036028125 0.000116666666667 0.006496875 0.390093
44 1 -0.036028125 0.000116666666667 0.007678125 0.298193
45 1 -0.034846875 -0.00261666666667 -0.011221875 0.196298
46 1 -0.034846875 -0.00261666666667 -0.010040625 0.247616
47 1 -0.034846875 -0.00261666666667 -0.008859375 0.219842
48 1 -0.034846875 -0.00261666666667 -0.007678125 0.264372
49 1 -0.034846875 -0.00261666666667 -0.006496875 0.242469
50 1 -0.034846875 -0.00261666666667 -0.005315625 0.279289
51 1 -0.034846875 -0.00261666666667 -0.004134375 0.265397
52 1 -0.034846875 -0.00261666666667 -0.002953125 0.293642
53 1 -0.034846875 -0.00261666666667 -0.001771875 0.287257
54 1 -0.034846875 -0.00261666666667 -0.000590625 0.306657
55 1 -0.034846875 -0.00261666666667 0.000590625 0.305741
56 1 -0.034846875 -0.00261666666667 0.001771875 0.316416
57 1 -0.034846875 -0.00261666666667 0.002953125 0.314983
58 1 -0.034846875 -0.00261666666667 0.004134375 0.314864
59 1 -0.034846875 -0.00261666666667 0.005315625 0.312135
60 1 -0.034846875 -0.00261666666667 0.006496875 0.304302
61 1 -0.034846875 -0.00261666666667 0.007678125 0.294252
62 1 -0.034846875 -0.00261666666667 0.008859375 0.283701
63 1 -0.034846875 -0.00261666666667 0.010040625 0.265961
64 1 -0.034846875 -0.00261666666667 0.011221875 0.260862
65 1 -0.034846875 -0.00125 -0.011221875 0.196298
66 1 -0.034846875 -0.00125 -0.010040625 0.247616
67 1 -0.034846875 -0.00125 -0.008859375 0.219842
68 1 -0.034846875 -0.00125 -0.007678125 0.264372
69 1 -0.034846875 -0.00125 -0.006496875 0.242469
70 1 -0.034846875 -0.00125 -0.005315625 0.279289
71 1 -0.034846875 -0.00125 -0.004134375 0.265397
72 1 -0.034846875 -0.00125 -0.002953125 0.293642
73 1 -0.034846875 -0.00125 -0.001771875 0.287257
74 1 -0.034846875 -0.00125 -0.000590625 0.306657
75 1 -0.034846875 -0.00125 0.000590625 0.305741
76 1 -0.034846875 -0.00125 0.001771875 0.316416
77 1 -0.034846875 -0.00125 0.002953125 0.314983
78 1 -0.034846875 -0.00125 0.004134375 0.314864
79 1 -0.034846875 -0.00125 0.005315625 0.312135
80 1 -0.034846875 -0.00125 0.006496875 0.304302
81 1 -0.034846875 -0.00125 0.007678125 0.294252
82 1 -0.034846875 -0.00125 0.008859375 0.283701
83 1 -0.034846875 -0.00125 0.010040625 0.265961
84 1 -0.034846875 -0.00125 0.011221875 0.260862
85 1 -0.034846875 0.000116666666667 -0.011221875 0.196298
86 1 -0.034846875 0.000116666666667 -0.010040625 0.247616
87 1 -0.034846875 0.000116666666667 -0.008859375 0.219842
88 1 -0.034846875 0.000116666666667 -0.007678125 0.264372
89 1 -0.034846875 0.000116666666667 -0.006496875 0.242469
90 1 -0.034846875 0.000116666666667 -0.005315625 0.279289
91 1 -0.034846875 0.000116666666667 -0.004134375 0.265397
92 1 -0.034846875 0.000116666666667 -0.002953125 0.293642
93 1 -0.034846875 0.000116666666667 -0.001771875 0.287257
94 1 -0.034846875 0.000116666666667 -0.000590625 0.306657
95 1 -0.034846875 0.000116666666667 0.000590625 0.305741
96 1 -0.034846875 0.000116666666667 0.001771875 0.316416
97 1 -0.034846875 0.000116666666667 0.002953125 0.314983
98 1 -0.034846875 0.000116666666667 0.004134375 0.314864
99 1 -0.034846875 0.000116666666667 0.005315625 0.312135
100 1 -0.034846875 0.000116666666667 0.006496875 0.304302
101 1 -0.034846875 0.000116666666667 0.007678125 0.294252
102 1 -0.034846875 0.000116666666667 0.008859375 0.283701
103 1 -0.034846875 0.000116666666667 0.010040625 0.265961
104 1 -0.034846875 0.000116666666667 0.011221875 0.260862
105 1 -0.033665625 -0.00261666666667 -0.013584375 0.212652
106 1 -0.033665625 -0.00261666666667 -0.012403125 0.314487
107 1 -0.033665625 -0.00261666666667 -0.011221875 0.246808
108 1 -0.033665625 -0.00261666666667 -0.010040625 0.34667
109 1 -0.033665625 -0.00261666666667 -0.008859375 0.279418
110 1 -0.033665625 -0.00261666666667 -0.007678125 0.373455
111 1 -0.033665625 -0.00261666666667 -0.006496875 0.310317
112 1 -0.033665625 -0.00261666666667 -0.005315625 0.398182
113 1 -0.033665625 -0.00261666666667 -0.004134375 0.33787
114 1 -0.033665625 -0.00261666666667 -0.002953125 0.419192
115 1 -0.033665625 -0.00261666666667 -0.001771875 0.363094
116 1 -0.033665625 -0.00261666666667 -0.000590625 0.43799
117 1 -0.033665625 -0.00261666666667 0.000590625 0.381715
118 1 -0.033665625 -0.00261666666667 0.001771875 0.448637
119 1 -0.033665625 -0.00261666666667 0.002953125 0.389611
120 1 -0.033665625 -0.00261666666667 0.004134375 0.447289
121 1 -0.033665625 -0.00261666666667 0.005315625 0.380313
122 1 -0.033665625 -0.00261666666667 0.006496875 0.431371
123 1 -0.033665625 -0.00261666666667 0.007678125 0.35619
124 1 -0.033665625 -0.00261666666667 0.008859375 0.403405
125 1 -0.033665625 -0.00261666666667 0.010040625 0.31914
126 1 -0.033665625 -0.00261666666667 0.011221875 0.364831
127 1 -0.033665625 -0.00261666666667 0.012403125 0.276413
128 1 -0.033665625 -0.00261666666667 0.013584375 0.323526
129 1 -0.033665625 -0.00125 -0.013584375 0.212652
130 1 -0.033665625 -0.00125 -0.012403125 0.314487
131 1 -0.033665625 -0.00125 -0.011221875 0.246808
132 1 -0.033665625 -0.00125 -0.010040625 0.34667
133 1 -0.033665625 -0.00125 -0.008859375 0.279418
134 1 -0.033665625 -0.00125 -0.007678125 0.373455
135 1 -0.033665625 -0.00125 -0.006496875 0.310317
136 1 -0.033665625 -0.00125 -0.005315625 0.398182
137 1 -0.033665625 -0.00125 -0.004134375 0.33787
138 1 -0.033665625 -0.00125 -0.002953125 0.419192
139 1 -0.033665625 -0.00125 -0.001771875 0.363094
140 1 -0.033665625 -0.00125 -0.000590625 0.43799
141 1 -0.033665625 -0.00125 0.000590625 0.381715
142 1 -0.033665625 -0.00125 0.001771875 0.448637
143 1 -0.033665625 -0.00125 0.002953125 0.389611
144 1 -0.033665625 -0.00125 0.004134375 0.447289
145 1 -0.033665625 -0.00125 0.005315625 0.380313
146 1 -0.033665625 -0.00125 0.006496875 0.431371
147 1 -0.033665625 -0.00125 0.007678125 0.35619
148 1 -0.033665625 -0.00125 0.008859375 0.403405
149 1 -0.033665625 -0.00125 0.010040625 0.31914
150 1 -0.033665625 -0.00125 0.011221875 0.364831
151 1 -0.033665625 -0.00125 0.012403125 0.276413
152 1 -0.033665625 -0.00125 0.013584375 0.323526
153 1 -0.033665625 0.000116666666667 -0.013584375 0.212652
154 1 -0.033665625 0.000116666666667 -0.012403125 0.314487
155 1 -0.033665625 0.000116666666667 -0.011221875 0.246808
156 1 -0.033665625 0.000116666666667 -0.010040625 0.34667
157 1 -0.033665625 0.000116666666667 -0.008859375 0.279418
158 1 -0.033665625 0.000116666666667 -0.007678125 0.373455
159 1 -0.033665625 0.000116666666667 -0.006496875 0.310317
160 1 -0.033665625 0.000116666666667 -0.005315625 0.398182
161 1 -0.033665625 0.000116666666667 -0.004134375 0.33787
162 1 -0.033665625 0.000116666666667 -0.002953125 0.419192
163 1 -0.033665625 0.000116666666667 -0.001771875 0.363094
164 1 -0.033665625 0.000116666666667 -0.000590625 0.43799
165 1 -0.033665625 0.000116666666667 0.000590625 0.381715
166 1 -0.033665625 0.000116666666667 0.001771875 0.448637
167 1 -0.033665625 0.000116666666667 0.002953125 0.389611
168 1 -0.033665625 0.000116666666667 0.004134375 0.447289
169 1 -0.033665625 0.000116666666667 0.005315625 0.380313
170 1 -0.033665625 0.000116666666667 0.006496875 0.431371
171 1 -0.033665625 0.000116666666667 0.007678125 0.35619
172 1 -0.033665625 0.000116666666667 0.008859375 0.403405
173 1 -0.033665625 0.000116666666667 0.010040625 0.31914
174 1 -0.033665625 0.000116666666667 0.011221875 0.364831
175 1 -0.033665625 0.000116666666667 0.012403125 0.276413
176 1 -0.033665625 0.000116666666667 0.013584375 0.323526
177 1 -0.032484375 -0.00261666666667 -0.018309375 0.125454
178 1 -0.032484375 -0.00261666666667 -0.017128125 0.1905
179 1 -0.032484375 -0.00261666666667 -0.015946875 0.153237
180 1 -0.032484375 -0.00261666666667 -0.014765625 0.218742
181 1 -0.032484375 -0.00261666666667 -0.013584375 0.189379
182 1 -0.032484375 -0.00261666666667 -0.012403125 0.250197
183 1 -0.032484375 -0.00261666666667 -0.011221875 0.229223
184 1 -0.032484375 -0.00261666666667 -0.010040625 0.279174
185 1 -0.032484375 -0.00261666666667 -0.008859375 0.266903
186 1 -0.032484375 -0.00261666666667 -0.007678125 0.30572
187 1 -0.032484375 -0.00261666666667 -0.006496875 0.301791
188 1 -0.032484375 -0.00261666666667 -0.005315625 0.328872
189 1 -0.032484375 -0.00261666666667 -0.004134375 0.335285
190 1 -0.032484375 -0.00261666666667 -0.002953125 0.349995
191 1 -0.032484375 -0.00261666666667 -0.001771875 0.36471
192 1 -0.032484375 -0.00261666666667 -0.000590625 0.369066
193 1 -0.032484375 -0.00261666666667 0.000590625 0.388445
194 1 -0.032484375 -0.00261666666667 0.001771875 0.382506
195 1 -0.032484375 -0.00261666666667 0.002953125 0.400984
196 1 -0.032484375 -0.00261666666667 0.004134375 0.379834
197 1 -0.032484375 -0.00261666666667 0.005315625 0.400039
198 1 -0.032484375 -0.00261666666667 0.006496875 0.364228
199 1 -0.032484375 -0.00261666666667 0.007678125 0.377334
200 1 -0.032484375 -0.00261666666667 0.008859375 0.33292
201 1 -0.032484375 -0.00261666666667 0.010040625 0.335641
202 1 -0.032484375 -0.00261666666667 0.011221875 0.296622
203 1 -0.032484375 -0.00261666666667 0.012403125 0.282941
204 1 -0.032484375 -0.00261666666667 0.013584375 0.256699
205 1 -0.032484375 -0.00261666666667 0.014765625 0.227838
206 1 -0.032484375 -0.00261666666667 0.015946875 0.218634
207 1 -0.032484375 -0.00261666666667 0.017128125 0.180453
208 1 -0.032484375 -0.00261666666667 0.018309375 0.187348
209 1 -0.032484375 -0.00125 -0.018309375 0.125454
210 1 -0.032484375 -0.00125 -0.017128125 0.1905
211 1 -0.032484375 -0.00125 -0.015946875 0.153237
212 1 -0.032484375 -0.00125 -0.014765625 0.218742
213 1 -0.032484375 -0.00125 -0.013584375 0.189379
214 1 -0.032484375 -0.00125 -0.012403125 0.250197
215 1 -0.032484375 -0.00125 -0.011221875 0.229223
216 1 -0.032484375 -0.00125 -0.010040625 0.279174
217 1 -0.032484375 -0.00125 -0.008859375 0.266903
218 1 -0.032484375 -0.00125 -0.007678125 0.30572
219 1 -0.032484375 -0.00125 -0.006496875 0.301791
220 1 -0.032484375 -0.00125 -0.005315625 0.328872
221 1 -0.032484375 -0.00125 -0.004134375 0.335285
222 1 -0.032484375 -0.00125 -0.002953125 0.349995
223 1 -0.032484375 -0.00125 -0.001771875 0.36471
224 1 -0.032484375 -0.00125 -0.000590625 0.369066
225 1 -0.032484375 -0.00125 0.000590625 0.388445
226 1 -0.032484375 -0.00125 0.001771875 0.382506
227 1 -0.032484375 -0.00125 0.002953125 0.400984
228 1 -0.032484375 -0.00125 0.004134375 0.379834
229 1 -0.032484375 -0.00125 0.005315625 0.400039
230 1 -0.032484375 -0.00125 0.006496875 0.364228
231 1 -0.032484375 -0.00125 0.007678125 0.377334
232 1 -0.032484375 -0.00125 0.008859375 0.33292
233 1 -0.032484375 -0.00125 0.010040625 0.335641
234 1 -0.032484375 -0.00125 0.011221875 0.296622
235 1 -0.032484375 -0.00125 0.012403125 0.282941
236 1 -0.032484375 -0.00125 0.013584375 0.256699
237 1 -0.032484375 -0.00125 0.014765625 0.227838
238 1 -0.032484375 -0.00125 0.015946875 0.218634
239 1 -0.032484375 -0.00125 0.017128125 0.180453
240 1 -0.032484375 -0.00125 0.018309375 0.187348
241 1 -0.032484375 0.000116666666667 -0.018309375 0.125454
242 1 -0.032484375 0.000116666666667 -0.017128125 0.1905
243 1 -0.032484375 0.000116666666667 -0.015946875 0.153237
244 1 -0.032484375 0.000116666666667 -0.014765625 0.218742
245 1 -0.032484375 0.000116666666667 -0.013584375 0.189379
246 1 -0.032484375 0.000116666666667 -0.012403125 0.250197
247 1 -0.032484375 0.000116666666667 -0.011221875 0.229223
248 1 -0.032484375 0.000116666666667 -0.010040625 0.279174
249 1 -0.032484375 0.000116666666667 -0.008859375 0.266903
250 1 -0.032484375 0.000116666666667 -0.007678125 0.30572
251 1 -0.032484375 0.000116666666667 -0.006496875 0.301791
252 1 -0.032484375 0.000116666666667 -0.005315625 0.328872
253 1 -0.032484375 0.000116666666667 -0.004134375 0.335285
254 1 -0.032484375 0.000116666666667 -0.002953125 0.349995
255 1 -0.032484375 0.000116666666667 -0.001771875 0.36471
256 1 -0.032484375 0.000116666666667 -0.000590625 0.369066
257 1 -0.032484375 0.000116666666667 0.000590625 0.388445
258 1 -0.032484375 0.000116666666667 0.001771875 0.382506
259 1 -0.032484375 0.000116666666667 0.002953125 0.400984
260 1 -0.032484375 0.000116666666667 0.004134375 0.379834
261 1 -0.032484375 0.000116666666667 0.005315625 0.400039
262 1 -0.032484375 0.000116666666667 0.006496875 0.364228
263 1 -0.032484375 0.000116666666667 0.007678125 0.377334
264 1 -0.032484375 0.000116666666667 0.008859375 0.33292
265 1 -0.032484375 0.000116666666667 0.010040625 0.335641
266 1 -0.032484375 0.000116666666667 0.011221875 0.296622
267 1 -0.032484375 0.000116666666667 0.012403125 0.282941
268 1 -0.032484375 0.000116666666667 0.013584375 0.256699
269 1 -0.032484375 0.000116666666667 0.014765625 0.227838
270 1 -0.032484375 0.000116666666667 0.015946875 0.218634
271 1 -0.032484375 0.000116666666667 0.017128125 0.180453
272 1 -0.032484375 0.000116666666667 0.018309375 0.187348
273 1 -0.031303125 -0.00261666666667 -0.019490625 0.247529
274 1 -0.031303125 -0.00261666666667 -0.018309375 0.196397
275 1 -0.031303125 -0.00261666666667 -0.017128125 0.287593
276 1 -0.031303125 -0.00261666666667 -0.015946875 0.242591
277 1 -0.031303125 -0.00261666666667 -0.014765625 0.332966
278 1 -0.031303125 -0.00261666666667 -0.013584375 0.29211
279 1 -0.031303125 -0.00261666666667 -0.012403125 0.376911
280 1 -0.031303125 -0.00261666666667 -0.011221875 0.341449
281 1 -0.031303125 -0.00261666666667 -0.010040625 0.41683
282 1 -0.031303125 -0.00261666666667 -0.008859375 0.384934
283 1 -0.031303125 -0.00261666666667 -0.007678125 0.447708
284 1 -0.031303125 -0.00261666666667 -0.006496875 0.422155
285 1 -0.031303125 -0.00261666666667 -0.005315625 0.473701
286 1 -0.031303125 -0.00261666666667 -0.004134375 0.451297
287 1 -0.031303125 -0.00261666666667 -0.002953125 0.49388
288 1 -0.031303125 -0.00261666666667 -0.001771875 0.475306
289 1 -0.031303125 -0.00261666666667 -0.000590625 0.511697
290 1 -0.031303125 -0.00261666666667 0.000590625 0.493162
291 1 -0.031303125 -0.00261666666667 0.001771875 0.521954
292 1 -0.031303125 -0.00261666666667 0.002953125 0.502551
293 1 -0.031303125 -0.00261666666667 0.004134375 0.520249
294 1 -0.031303125 -0.00261666666667 0.005315625 0.496893
295 1 -0.031303125 -0.00261666666667 0.006496875 0.505549
296 1 -0.031303125 -0.00261666666667 0.007678125 0.473556
297 1 -0.031303125 -0.00261666666667 0.008859375 0.476215
298 1 -0.031303125 -0.00261666666667 0.010040625 0.427581
299 1 -0.031303125 -0.00261666666667 0.011221875 0.430333
300 1 -0.031303125 -0.00261666666667 0.012403125 0.368227
301 1 -0.031303125 -0.00261666666667 0.013584375 0.377553
302 1 -0.031303125 -0.00261666666667 0.014765625 0.303019
303 1 -0.031303125 -0.00261666666667 0.015946875 0.321975
304 1 -0.031303125 -0.00261666666667 0.017128125 0.244458
305 1 -0.031303125 -0.00261666666667 0.018309375 0.274448
306 1 -0.031303125 -0.00261666666667 0.019490625 0.197913
307 1 -0.031303125 -0.00125 -0.019490625 0.247529
308 1 -0.031303125 -0.00125 -0.018309375 0.196397
309 1 -0.031303125 -0.00125 -0.017128125 0.287593
310 1 -0.031303125 -0.00125 -0.015946875 0.242591
311 1 -0.031303125 -0.00125 -0.014765625 0.332966
312 1 -0.031303125 -0.00125 -0.013584375 0.29211
313 1 -0.031303125 -0.00125 -0.012403125 0.376911
314 1 -0.031303125 -0.00125 -0.011221875 0.341449
315 1 -0.031303125 -0.00125 -0.010040625 0.41683
316 1 -0.031303125 -0.00125 -0.008859375 0.384934
317 1 -0.031303125 -0.00125 -0.007678125 0.447708
318 1 -0.031303125 -0.00125 -0.006496875 0.422155
319 1 -0.031303125 -0.00125 -0.005315625 0.473701
320 1 -0.031303125 -0.00125 -0.004134375 0.451297
321 1 -0.031303125 -0.00125 -0.002953125 0.49388
322 1 -0.031303125 -0.00125 -0.001771875 0.475306
323 1 -0.031303125 -0.00125 -0.000590625 0.511697
324 1 -0.031303125 -0.00125 0.000590625 0.493162
325 1 -0.031303125 -0.00125 0.001771875 0.521954
326 1 -0.031303125 -0.00125 0.002953125 0.502551
327 1 -0.031303125 -0.00125 0.004134375 0.520249
328 1 -0.031303125 -0.00125 0.005315625 0.496893
329 1 -0.031303125 -0.00125 0.006496875 0.505549
330 1 -0.031303125 -0.00125 0.007678125 0.473556
331 1 -0.031303125 -0.00125 0.008859375 0.476215
332 1 -0.031303125 -0.00125 0.010040625 0.427581
333 1 -0.031303125 -0.00125 0.011221875 0.430333
334 1 -0.031303125 -0.00125 0.012403125 0.368227
335 1 -0.031303125 -0.00125 0.013584375 0.377553
336 1 -0.031303125 -0.00125 0.014765625 0.303019
337 1 -0.031303125 -0.00125 0.015946875 0.321975
338 1 -0.031303125 -0.00125 0.017128125 0.244458
339 1 -0.031303125 -0.00125 0.018309375 0.274448
340 1 -0.031303125 -0.00125 0.019490625 0.197913
341 1 -0.031303125 0.000116666666667 -0.019490625 0.247529
342 1 -0.031303125 0.000116666666667 -0.018309375 0.196397
343 1 -0.031303125 0.000116666666667 -0.017128125 0.287593
344 1 -0.031303125 0.000116666666667 -0.015946875 0.242591
345 1 -0.031303125 0.000116666666667 -0.014765625 0.332966
346 1 -0.031303125 0.000116666666667 -0.013584375 0.29211
347 1 -0.031303125 0.000116666666667 -0.012403125 0.376911
348 1 -0.031303125 0.000116666666667 -0.011221875 0.341449
349 1 -0.031303125 0.000116666666667 -0.010040625 0.41683
350 1 -0.031303125 0.000116666666667 -0.008859375 0.384934
351 1 -0.031303125 0.000116666666667 -0.007678125 0.447708
352 1 -0.031303125 0.000116666666667 -0.006496875 0.422155
353 1 -0.031303125 0.000116666666667 -0.005315625 0.473701
354 1 -0.031303125 0.000116666666667 -0.004134375 0.451297
355 1 -0.031303125 0.000116666666667 -0.002953125 0.49388
356 1 -0.031303125 0.000116666666667 -0.001771875 0.475306
357 1 -0.031303125 0.000116666666667 -0.000590625 0.511697
358 1 -0.031303125 0.000116666666667 0.000590625 0.493162
359 1 -0.031303125 0.000116666666667 0.001771875 0.521954
360 1 -0.031303125 0.000116666666667 0.002953125 0.502551
361 1 -0.031303125 0.000116666666667 0.004134375 0.520249
362 1 -0.031303125 0.000116666666667 0.005315625 0.496893
363 1 -0.031303125 0.000116666666667 0.006496875 0.505549
364 1 -0.031303125 0.000116666666667 0.007678125 0.473556
365 1 -0.031303125 0.000116666666667 0.008859375 0.476215
366 1 -0.031303125 0.000116666666667 0.010040625 0.427581
367 1 -0.031303125 0.000116666666667 0.011221875 0.430333
368 1 -0.031303125 0.000116666666667 0.012403125 0.368227
369 1 -0.031303125 0.000116666666667 0.013584375 0.377553
370 1 -0.031303125 0.000116666666667 0.014765625 0.303019
371 1 -0.031303125 0.000116666666667 0.015946875 0.321975
372 1 -0.031303125 0.000116666666667 0.017128125 0.244458
373 1 -0.031303125 0.000116666666667 0.018309375 0.274448
374 1 -0.031303125 0.000116666666667 0.019490625 0.197913
375 1 -0.030121875 -0.00261666666667 -0.020671875 0.145784
376 1 -0.030121875 -0.00261666666667 -0.019490625 0.212591
377 1 -0.030121875 -0.00261666666667 -0.018309375 0.18396
378 1 -0.030121875 -0.00261666666667 -0.017128125 0.2523
379 1 -0.030121875 -0.00261666666667 -0.015946875 0.234212
380 1 -0.030121875 -0.00261666666667 -0.014765625 0.295782
381 1 -0.030121875 -0.00261666666667 -0.013584375 0.288789
382 1 -0.030121875 -0.00261666666667 -0.012403125 0.339389
383 1 -0.030121875 -0.00261666666667 -0.011221875 0.339798
384 1 -0.030121875 -0.00261666666667 -0.010040625 0.375683
385 1 -0.030121875 -0.00261666666667 -0.008859375 0.38331
386 1 -0.030121875 -0.00261666666667 -0.007678125 0.405352
387 1 -0.030121875 -0.00261666666667 -0.006496875 0.419937
388 1 -0.030121875 -0.00261666666667 -0.005315625 0.428542
389 1 -0.030121875 -0.00261666666667 -0.004134375 0.45272
390 1 -0.030121875 -0.00261666666667 -0.002953125 0.447501
391 1 -0.030121875 -0.00261666666667 -0.001771875 0.48142
392 1 -0.030121875 -0.00261666666667 -0.000590625 0.463783
393 1 -0.030121875 -0.00261666666667 0.000590625 0.505593
394 1 -0.030121875 -0.00261666666667 0.001771875 0.476175
395 1 -0.030121875 -0.00261666666667 0.002953125 0.519291
396 1 -0.030121875 -0.00261666666667 0.004134375 0.472991
397 1 -0.030121875 -0.00261666666667 0.005315625 0.520758
398 1 -0.030121875 -0.00261666666667 0.006496875 0.460002
399 1 -0.030121875 -0.00261666666667 0.007678125 0.501149
400 1 -0.030121875 -0.00261666666667 0.008859375 0.428092
401 1 -0.030121875 -0.00261666666667 0.010040625 0.460538
402 1 -0.030121875 -0.00261666666667 0.011221875 0.383208
403 1 -0.030121875 -0.00261666666667 0.012403125 0.400427
404 1 -0.030121875 -0.00261666666667 0.013584375 0.330112
405 1 -0.030121875 -0.00261666666667 0.014765625 0.325369
406 1 -0.030121875 -0.00261666666667 0.015946875 0.277058
407 1 -0.030121875 -0.00261666666667 0.017128125 0.254348
408 1 -0.030121875 -0.00261666666667 0.018309375 0.231757
409 1 -0.030121875 -0.00261666666667 0.019490625 0.196759
410 1 -0.030121875 -0.00261666666667 0.020671875 0.197041
411 1 -0.030121875 -0.00125 -0.020671875 0.145784
412 1 -0.030121875 -0.00125 -0.019490625 0.212591
413 1 -0.030121875 -0.00125 -0.018309375 0.18396
414 1 -0.030121875 -0.00125 -0.017128125 0.2523
415 1 -0.030121875 -0.00125 -0.015946875 0.234212
416 1 -0.030121875 -0.00125 -0.014765625 0.295782
417 1 -0.030121875 -0.00125 -0.013584375 0.288789
418 1 -0.030121875 -0.00125 -0.012403125 0.339389
419 1 -0.030121875 -0.00125 -0.011221875 0.339798
420 1 -0.030121875 -0.00125 -0.010040625 0.375683
421 1 -0.030121875 -0.00125 -0.008859375 0.38331
422 1 -0.030121875 -0.00125 -0.007678125 0.405352
423 1 -0.030121875 -0.00125 -0.006496875 0.419937
424 1 -0.030121875 -0.00125 -0.005315625 0.428542
425 1 -0.030121875 -0.00125 -0.004134375 0.45272
426 1 -0.030121875 -0.00125 -0.002953125 0.447501
427 1 -0.030121875 -0.00125 -0.001771875 0.48142
428 1 -0.030121875 -0.00125 -0.000590625 0.463783
429 1 -0.030121875 -0.00125 0.000590625 0.505593
430 1 -0.030121875 -0.00125 0.001771875 0.476175
431 1 -0.030121875 -0.00125 0.002953125 0.519291
432 1 -0.030121875 -0.00125 0.004134375 0.472991
433 1 -0.030121875 -0.00125 0.005315625 0.520758
434 1 -0.030121875 -0.00125 0.006496875 0.460002
435 1 -0.030121875 -0.00125 0.007678125 0.501149
436 1 -0.030121875 -0.00125 0.008859375 0.428092
437 1 -0.030121875 -0.00125 0.010040625 0.460538
438 1 -0.030121875 -0.00125 0.011221875 0.383208
439 1 -0.030121875 -0.00125 0.012403125 0.400427
440 1 -0.030121875 -0.00125 0.013584375 0.330112
441 1 -0.030121875 -0.00125 0.014765625 0.325369
442 1 -0.030121875 -0.00125 0.015946875 0.277058
443 1 -0.030121875 -0.00125 0.017128125 0.254348
444 1 -0.030121875 -0.00125 0.018309375 0.231757
445 1 -0.030121875 -0.00125 0.019490625 0.196759
446 1 -0.030121875 -0.00125 0.020671875 0.197041
447 1 -0.030121875 0.000116666666667 -0.020671875 0.145784
448 1 -0.030121875 0.000116666666667 -0.019490625 0.212591
449 1 -0.030121875 0.000116666666667 -0.018309375 0.18396
450 1 -0.030121875 0.000116666666667 -0.017128125 0.2523
451 1 -0.030121875 0.000116666666667 -0.015946875 0.234212
452 1 -0.030121875 0.000116666666667 -0.014765625 0.295782
453 1 -0.030121875 0.000116666666667 -0.013584375 0.288789
454 1 -0.030121875 0.000116666666667 -0.012403125 0.339389
455 1 -0.030121875 0.000116666666667 -0.011221875 0.339798
456 1 -0.030121875 0.000116666666667 -0.010040625 0.375683
457 1 -0.030121875 0.000116666666667 -0.008859375 0.38331
458 1 -0.030121875 0.000116666666667 -0.007678125 0.405352
459 1 -0.030121875 0.000116666666667 -0.006496875 0.419937
460 1 -0.030121875 0.000116666666667 -0.005315625 0.428542
461 1 -0.030121875 0.000116666666667 -0.004134375 0.45272
462 1 -0.030121875 0.000116666666667 -0.002953125 0.447501
463 1 -0.030121875 0.000116666666667 -0.001771875 0.48142
464 1 -0.030121875 0.000116666666667 -0.000590625 0.463783
465 1 -0.030121875 0.000116666666667 0.000590625 0.505593
466 1 -0.030121875 0.000116666666667 0.001771875 0.476175
467 1 -0.030121875 0.000116666666667 0.002953125 0.519291
468 1 -0.030121875 0.000116666666667 0.004134375 0.472991
469 1 -0.030121875 0.000116666666667 0.005315625 0.520758
470 1 -0.030121875 0.000116666666667 0.006496875 0.460002
471 1 -0.030121875 0.000116666666667 0.007678125 0.501149
472 1 -0.030121875 0.000116666666667 0.008859375 0.428092
473 1 -0.030121875 0.000116666666667 0.010040625 0.460538
474 1 -0.030121875 0.000116666666667 0.011221875 0.383208
475 1 -0.030121875 0.000116666666667 0.012403125 0.400427
476 1 -0.030121875 0.000116666666667 0.013584375 0.330112
477 1 -0.030121875 0.000116666666667 0.014765625 0.325369
478 1 -0.030121875 0.000116666666667 0.015946875 0.277058
479 1 -0.030121875 0.000116666666667 0.017128125 0.254348
480 1 -0.030121875 0.000116666666667 0.018309375 0.231757
481 1 -0.030121875 0.000116666666667 0.019490625 0.196759
482 1 -0.030121875 0.000116666666667 0.020671875 0.197041
483 1 -0.028940625 -0.00261666666667 -0.021853125 0.286275
484 1 -0.028940625 -0.00261666666667 -0.020671875 0.248231
485 1 -0.028940625 -0.00261666666667 -0.019490625 0.333602
486 1 -0.028940625 -0.00261666666667 -0.018309375 0.305626
487 1 -0.028940625 -0.00261666666667 -0.017128125 0.386388
488 1 -0.028940625 -0.00261666666667 -0.015946875 0.369037
489 1 -0.028940625 -0.00261666666667 -0.014765625 0.440644
490 1 -0.028940625 -0.00261666666667 -0.013584375 0.424655
491 1 -0.028940625 -0.00261666666667 -0.012403125 0.482989
492 1 -0.028940625 -0.00261666666667 -0.011221875 0.467522
493 1 -0.028940625 -0.00261666666667 -0.010040625 0.516073
494 1 -0.028940625 -0.00261666666667 -0.008859375 0.497923
495 1 -0.028940625 -0.00261666666667 -0.007678125 0.540011
496 1 -0.028940625 -0.00261666666667 -0.006496875 0.523107
497 1 -0.028940625 -0.00261666666667 -0.005315625 0.56086
498 1 -0.028940625 -0.00261666666667 -0.004134375 0.542742
499 1 -0.028940625 -0.00261666666667 -0.002953125 0.57619
500 1 -0.028940625 -0.00261666666667 -0.001771875 0.560206
501 1 -0.028940625 -0.00261666666667 -0.000590625 0.590515
502 1 -0.028940625 -0.00261666666667 0.000590625 0.573441
503 1 -0.028940625 -0.00261666666667 0.001771875 0.598475
504 1 -0.028940625 -0.00261666666667 0.002953125 0.580622
505 1 -0.028940625 -0.00261666666667 0.004134375 0.596114
506 1 -0.028940625 -0.00261666666667 0.005315625 0.575036
507 1 -0.028940625 -0.00261666666667 0.006496875 0.582011
508 1 -0.028940625 -0.00261666666667 0.007678125 0.558312
509 1 -0.028940625 -0.00261666666667 0.008859375 0.555057
510 1 -0.028940625 -0.00261666666667 0.010040625 0.528449
511 1 -0.028940625 -0.00261666666667 0.011221875 0.515008
512 1 -0.028940625 -0.00261666666667 0.012403125 0.483892
513 1 -0.028940625 -0.00261666666667 0.013584375 0.465417
514 1 -0.028940625 -0.00261666666667 0.014765625 0.417296
515 1 -0.028940625 -0.00261666666667 0.015946875 0.4028
516 1 -0.028940625 -0.00261666666667 0.017128125 0.342342
517 1 -0.028940625 -0.00261666666667 0.018309375 0.343617
518 1 -0.028940625 -0.00261666666667 0.019490625 0.275786
519 1 -0.028940625 -0.00261666666667 0.020671875 0.295166
520 1 -0.028940625 -0.00261666666667 0.021853125 0.22351
521 1 -0.028940625 -0.00125 -0.021853125 0.286275
522 1 -0.028940625 -0.00125 -0.020671875 0.248231
523 1 -0.028940625 -0.00125 -0.019490625 0.333602
524 1 -0.028940625 -0.00125 -0.018309375 0.305626
525 1 -0.028940625 -0.00125 -0.017128125 0.386388
526 1 -0.028940625 -0.00125 -0.015946875 0.369037
527 1 -0.028940625 -0.00125 -0.014765625 0.440644
528 1 -0.028940625 -0.00125 -0.013584375 0.424655
529 1 -0.028940625 -0.00125 -0.012403125 0.482989
530 1 -0.028940625 -0.00125 -0.011221875 0.467522
531 1 -0.028940625 -0.00125 -0.010040625 0.516073
532 1 -0.028940625 -0.00125 -0.008859375 0.497923
533 1 -0.028940625 -0.00125 -0.007678125 0.540011
534 1 -0.028940625 -0.00125 -0.006496875 0.523107
535 1 -0.028940625 -0.00125 -0.005315625 0.56086
536 1 -0.028940625 -0.00125 -0.004134375 0.542742
537 1 -0.028940625 -0.00125 -0.002953125 0.57619
538 1 -0.028940625 -0.00125 -0.001771875 0.560206