ITEM: TIMESTEP
0
ITEM: NUMBER OF ATOMS
9240
ITEM: BOX BOUNDS ss ss ss
-3.7007399999999996e-02 3.7007399999999996e-02
-2.0002499999999999e-03 2.5000000000000004e-07
-3.7007399999999996e-02 3.7007399999999996e-02
ITEM: ATOMS id type x y z c_1
0 1 -0.037209375 -0.00261666666667 -0.000590625 0.346871
1 1 -0.037209375 -0.00125 -0.000590625 0.346871
2 1 -0.037209375 0.000116666666667 -0.000590625 0.346871
3 1 -0.036028125 -0.00261666666667 -0.007678125 0.356862
4 1 -0.036028125 -0.00261666666667 -0.006496875 0.266353
5 1 -0.036028125 -0.00261666666667 -0.005315625 0.37541
6 1 -0.036028125 -0.00261666666667 -0.004134375 0.283363
7 1 -0.036028125 -0.00261666666667 -0.002953125 0.389535
8 1 -0.036028125 -0.00261666666667 -0.001771875 0.298826
9 1 -0.036028125 -0.00261666666667 -0.000590625 0.401437
10 1 -0.036028125 -0.00261666666667 0.000590625 0.310532
11 1 -0.036028125 -0.00261666666667 0.001771875 0.407759
12 1 -0.036028125 -0.00261666666667 0.002953125 0.31471
13 1 -0.036028125 -0.00261666666667 0.004134375 0.403448
14 1 -0.036028125 -0.00261666666667 0.005315625 0.306691
15 1 -0.036028125 -0.00261666666667 0.006496875 0.387323
16 1 -0.036028125 -0.00261666666667 0.007678125 0.289074
17 1 -0.036028125 -0.00125 -0.007678125 0.356862
18 1 -0.036028125 -0.00125 -0.006496875 0.266353
19 1 -0.036028125 -0.00125 -0.005315625 0.37541
20 1 -0.036028125 -0.00125 -0.004134375 0.283363
21 1 -0.036028125 -0.00125 -0.002953125 0.389535
22 1 -0.036028125 -0.00125 -0.001771875 0.298826
23 1 -0.036028125 -0.00125 -0.000590625 0.401437
24 1 -0.036028125 -0.00125 0.000590625 0.310532
25 1 -0.036028125 -0.00125 0.001771875 0.407759
26 1 -0.036028125 -0.00125 0.002953125 0.31471
27 1 -0.036028125 -0.00125 0.004134375 0.403448
28 1 -0.036028125 -0.00125 0.005315625 0.306691
29 1 -0.036028125 -0.00125 0.006496875 0.387323
30 1 -0.036028125 -0.00125 0.007678125 0.289074
31 1 -0.036028125 0.000116666666667 -0.007678125 0.356862
32 1 -0.036028125 0.000116666666667 -0.006496875 0.266353
33 1 -0.036028125 0.000116666666667 -0.005315625 0.37541
34 1 -0.036028125 0.000116666666667 -0.004134375 0.283363
35 1 -0.036028125 0.000116666666667 -0.002953125 0.389535
36 1 -0.036028125 0.000116666666667 -0.001771875 0.298826
37 1 -0.036028125 0.000116666666667 -0.000590625 0.401437
38 1 -0.036028125 0.000116666666667 0.000590625 0.310532
39 1 -0.036028125 0.000116666666667 0.001771875 0.407759
40 1 -0.036028125 0.000116666666667 0.002953125 0.31471
41 1 -0.036028125 0.000116666666667 0.004134375 0.403448
42 1 -0.036028125 0.000116666666667 0.005315625 0.306691
43 1 -0.036028125 0.000116666666667 0.006496875 0.387323
44 1 -0.036028125 0.000116666666667 0.007678125 0.289074
45 1 -0.034846875 -0.00261666666667 -0.011221875 0.195415
46 1 -0.034846875 -0.00261666666667 -0.010040625 0.254173
47 1 -0.034846875 -0.00261666666667 -0.008859375 0.222044
48 1 -0.034846875 -0.00261666666667 -0.007678125 0.271842
49 1 -0.034846875 -0.00261666666667 -0.006496875 0.248236
50 1 -0.034846875 -0.00261666666667 -0.005315625 0.287736
51 1 -0.034846875 -0.00261666666667 -0.004134375 0.274552
52 1 -0.034846875 -0.00261666666667 -0.002953125 0.302488
53 1 -0.034846875 -0.00261666666667 -0.001771875 0.298245
54 1 -0.034846875 -0.00261666666667 -0.000590625 0.313539
55 1 -0.034846875 -0.00261666666667 0.000590625 0.316812
56 1 -0.034846875 -0.00261666666667 0.001771875 0.320293
57 1 -0.034846875 -0.00261666666667 0.002953125 0.323656
58 1 -0.034846875 -0.00261666666667 0.004134375 0.313512
59 1 -0.034846875 -0.00261666666667 0.005315625 0.314165
60 1 -0.034846875 -0.00261666666667 0.006496875 0.297976
61 1 -0.034846875 -0.00261666666667 0.007678125 0.289434
62 1 -0.034846875 -0.00261666666667 0.008859375 0.274185
63 1 -0.034846875 -0.00261666666667 0.010040625 0.256358
64 1 -0.034846875 -0.00261666666667 0.011221875 0.250057
65 1 -0.034846875 -0.00125 -0.011221875 0.195415
66 1 -0.034846875 -0.00125 -0.010040625 0.254173
67 1 -0.034846875 -0.00125 -0.008859375 0.222044
68 1 -0.034846875 -0.00125 -0.007678125 0.271842
69 1 -0.034846875 -0.00125 -0.006496875 0.248236
70 1 -0.034846875 -0.00125 -0.005315625 0.287736
71 1 -0.034846875 -0.00125 -0.004134375 0.274552
72 1 -0.034846875 -0.00125 -0.002953125 0.302488
73 1 -0.034846875 -0.00125 -0.001771875 0.298245
74 1 -0.034846875 -0.00125 -0.000590625 0.313539
75 1 -0.034846875 -0.00125 0.000590625 0.316812
76 1 -0.034846875 -0.00125 0.001771875 0.320293
77 1 -0.034846875 -0.00125 0.002953125 0.323656
78 1 -0.034846875 -0.00125 0.004134375 0.313512
79 1 -0.034846875 -0.00125 0.005315625 0.314165
80 1 -0.034846875 -0.00125 0.006496875 0.297976
81 1 -0.034846875 -0.00125 0.007678125 0.289434
82 1 -0.034846875 -0.00125 0.008859375 0.274185
83 1 -0.034846875 -0.00125 0.010040625 0.256358
84 1 -0.034846875 -0.00125 0.011221875 0.250057
85 1 -0.034846875 0.000116666666667 -0.011221875 0.195415
86 1 -0.034846875 0.000116666666667 -0.010040625 0.254173
87 1 -0.034846875 0.000116666666667 -0.008859375 0.222044
88 1 -0.034846875 0.000116666666667 -0.007678125 0.271842
89 1 -0.034846875 0.000116666666667 -0.006496875 0.248236
90 1 -0.034846875 0.000116666666667 -0.005315625 0.287736
91 1 -0.034846875 0.000116666666667 -0.004134375 0.274552
92 1 -0.034846875 0.000116666666667 -0.002953125 0.302488
93 1 -0.034846875 0.000116666666667 -0.001771875 0.298245
94 1 -0.034846875 0.000116666666667 -0.000590625 0.313539
95 1 -0.034846875 0.000116666666667 0.000590625 0.316812
96 1 -0.034846875 0.000116666666667 0.001771875 0.320293
97 1 -0.034846875 0.000116666666667 0.002953125 0.323656
98 1 -0.034846875 0.000116666666667 0.004134375 0.313512
99 1 -0.034846875 0.000116666666667 0.005315625 0.314165
100 1 -0.034846875 0.000116666666667 0.006496875 0.297976
101 1 -0.034846875 0.000116666666667 0.007678125 0.289434
102 1 -0.034846875 0.000116666666667 0.008859375 0.274185
103 1 -0.034846875 0.000116666666667 0.010040625 0.256358
104 1 -0.034846875 0.000116666666667 0.011221875 0.250057
105 1 -0.033665625 -0.00261666666667 -0.013584375 0.22175
106 1 -0.033665625 -0.00261666666667 -0.012403125 0.325602
107 1 -0.033665625 -0.00261666666667 -0.011221875 0.257836
108 1 -0.033665625 -0.00261666666667 -0.010040625 0.361775
109 1 -0.033665625 -0.00261666666667 -0.008859375 0.291895
110 1 -0.033665625 -0.00261666666667 -0.007678125 0.391673
111 1 -0.033665625 -0.00261666666667 -0.006496875 0.324881
112 1 -0.033665625 -0.00261666666667 -0.005315625 0.419508
113 1 -0.033665625 -0.00261666666667 -0.004134375 0.353158
114 1 -0.033665625 -0.00261666666667 -0.002953125 0.440361
115 1 -0.033665625 -0.00261666666667 -0.001771875 0.37711
116 1 -0.033665625 -0.00261666666667 -0.000590625 0.456809
117 1 -0.033665625 -0.00261666666667 0.000590625 0.393138
118 1 -0.033665625 -0.00261666666667 0.001771875 0.464624
119 1 -0.033665625 -0.00261666666667 0.002953125 0.39692
120 1 -0.033665625 -0.00261666666667 0.004134375 0.457885
121 1 -0.033665625 -0.00261666666667 0.005315625 0.381384
122 1 -0.033665625 -0.00261666666667 0.006496875 0.434206
123 1 -0.033665625 -0.00261666666667 0.007678125 0.350292
124 1 -0.033665625 -0.00261666666667 0.008859375 0.399648
125 1 -0.033665625 -0.00261666666667 0.010040625 0.309817
126 1 -0.033665625 -0.00261666666667 0.011221875 0.357677
127 1 -0.033665625 -0.00261666666667 0.012403125 0.266686
128 1 -0.033665625 -0.00261666666667 0.013584375 0.315487
129 1 -0.033665625 -0.00125 -0.013584375 0.22175
130 1 -0.033665625 -0.00125 -0.012403125 0.325602
131 1 -0.033665625 -0.00125 -0.011221875 0.257836
132 1 -0.033665625 -0.00125 -0.010040625 0.361775
133 1 -0.033665625 -0.00125 -0.008859375 0.291895
134 1 -0.033665625 -0.00125 -0.007678125 0.391673
135 1 -0.033665625 -0.00125 -0.006496875 0.324881
136 1 -0.033665625 -0.00125 -0.005315625 0.419508
137 1 -0.033665625 -0.00125 -0.004134375 0.353158
138 1 -0.033665625 -0.00125 -0.002953125 0.440361
139 1 -0.033665625 -0.00125 -0.001771875 0.37711
140 1 -0.033665625 -0.00125 -0.000590625 0.456809
141 1 -0.033665625 -0.00125 0.000590625 0.393138
142 1 -0.033665625 -0.00125 0.001771875 0.464624
143 1 -0.033665625 -0.00125 0.002953125 0.39692
144 1 -0.033665625 -0.00125 0.004134375 0.457885
145 1 -0.033665625 -0.00125 0.005315625 0.381384
146 1 -0.033665625 -0.00125 0.006496875 0.434206
147 1 -0.033665625 -0.00125 0.007678125 0.350292
148 1 -0.033665625 -0.00125 0.008859375 0.399648
149 1 -0.033665625 -0.00125 0.010040625 0.309817
150 1 -0.033665625 -0.00125 0.011221875 0.357677
151 1 -0.033665625 -0.00125 0.012403125 0.266686
152 1 -0.033665625 -0.00125 0.013584375 0.315487
153 1 -0.033665625 0.000116666666667 -0.013584375 0.22175
154 1 -0.033665625 0.000116666666667 -0.012403125 0.325602
155 1 -0.033665625 0.000116666666667 -0.011221875 0.257836
156 1 -0.033665625 0.000116666666667 -0.010040625 0.361775
157 1 -0.033665625 0.000116666666667 -0.008859375 0.291895
158 1 -0.033665625 0.000116666666667 -0.007678125 0.391673
159 1 -0.033665625 0.000116666666667 -0.006496875 0.324881
160 1 -0.033665625 0.000116666666667 -0.005315625 0.419508
161 1 -0.033665625 0.000116666666667 -0.004134375 0.353158
162 1 -0.033665625 0.000116666666667 -0.002953125 0.440361
163 1 -0.033665625 0.000116666666667 -0.001771875 0.37711
164 1 -0.033665625 0.000116666666667 -0.000590625 0.456809
165 1 -0.033665625 0.000116666666667 0.000590625 0.393138
166 1 -0.033665625 0.000116666666667 0.001771875 0.464624
167 1 -0.033665625 0.000116666666667 0.002953125 0.39692
168 1 -0.033665625 0.000116666666667 0.004134375 0.457885
169 1 -0.033665625 0.000116666666667 0.005315625 0.381384
170 1 -0.033665625 0.000116666666667 0.006496875 0.434206
171 1 -0.033665625 0.000116666666667 0.007678125 0.350292
172 1 -0.033665625 0.000116666666667 0.008859375 0.399648
173 1 -0.033665625 0.000116666666667 0.010040625 0.309817
174 1 -0.033665625 0.000116666666667 0.011221875 0.357677
175 1 -0.033665625 0.000116666666667 0.012403125 0.266686
176 1 -0.033665625 0.000116666666667 0.013584375 0.315487
177 1 -0.032484375 -0.00261666666667 -0.018309375 0.125419
178 1 -0.032484375 -0.00261666666667 -0.017128125 0.203149
179 1 -0.032484375 -0.00261666666667 -0.015946875 0.158234
180 1 -0.032484375 -0.00261666666667 -0.014765625 0.23586
181 1 -0.032484375 -0.00261666666667 -0.013584375 0.201333
182 1 -0.032484375 -0.00261666666667 -0.012403125 0.27128
183 1 -0.032484375 -0.00261666666667 -0.011221875 0.247757
184 1 -0.032484375 -0.00261666666667 -0.010040625 0.302823
185 1 -0.032484375 -0.00261666666667 -0.008859375 0.292176
186 1 -0.032484375 -0.00261666666667 -0.007678125 0.330975
187 1 -0.032484375 -0.00261666666667 -0.006496875 0.331809
188 1 -0.032484375 -0.00261666666667 -0.005315625 0.355448
189 1 -0.032484375 -0.00261666666667 -0.004134375 0.36749
190 1 -0.032484375 -0.00261666666667 -0.002953125 0.376963
191 1 -0.032484375 -0.00261666666667 -0.001771875 0.396085
192 1 -0.032484375 -0.00261666666667 -0.000590625 0.391062
193 1 -0.032484375 -0.00261666666667 0.000590625 0.418385
194 1 -0.032484375 -0.00261666666667 0.001771875 0.39814
195 1 -0.032484375 -0.00261666666667 0.002953125 0.425219
196 1 -0.032484375 -0.00261666666667 0.004134375 0.386279
197 1 -0.032484375 -0.00261666666667 0.005315625 0.412658
198 1 -0.032484375 -0.00261666666667 0.006496875 0.360878
199 1 -0.032484375 -0.00261666666667 0.007678125 0.376648
200 1 -0.032484375 -0.00261666666667 0.008859375 0.32303
201 1 -0.032484375 -0.00261666666667 0.010040625 0.324875
202 1 -0.032484375 -0.00261666666667 0.011221875 0.284322
203 1 -0.032484375 -0.00261666666667 0.012403125 0.268279
204 1 -0.032484375 -0.00261666666667 0.013584375 0.245777
205 1 -0.032484375 -0.00261666666667 0.014765625 0.214171
206 1 -0.032484375 -0.00261666666667 0.015946875 0.212157
207 1 -0.032484375 -0.00261666666667 0.017128125 0.171802
208 1 -0.032484375 -0.00261666666667 0.018309375 0.187613
209 1 -0.032484375 -0.00125 -0.018309375 0.125419
210 1 -0.032484375 -0.00125 -0.017128125 0.203149
211 1 -0.032484375 -0.00125 -0.015946875 0.158234
212 1 -0.032484375 -0.00125 -0.014765625 0.23586
213 1 -0.032484375 -0.00125 -0.013584375 0.201333
214 1 -0.032484375 -0.00125 -0.012403125 0.27128
215 1 -0.032484375 -0.00125 -0.011221875 0.247757
216 1 -0.032484375 -0.00125 -0.010040625 0.302823
217 1 -0.032484375 -0.00125 -0.008859375 0.292176
218 1 -0.032484375 -0.00125 -0.007678125 0.330975
219 1 -0.032484375 -0.00125 -0.006496875 0.331809
220 1 -0.032484375 -0.00125 -0.005315625 0.355448
221 1 -0.032484375 -0.00125 -0.004134375 0.36749
222 1 -0.032484375 -0.00125 -0.002953125 0.376963
223 1 -0.032484375 -0.00125 -0.001771875 0.396085
224 1 -0.032484375 -0.00125 -0.000590625 0.391062
225 1 -0.032484375 -0.00125 0.000590625 0.418385
226 1 -0.032484375 -0.00125 0.001771875 0.39814
227 1 -0.032484375 -0.00125 0.002953125 0.425219
228 1 -0.032484375 -0.00125 0.004134375 0.386279
229 1 -0.032484375 -0.00125 0.005315625 0.412658
230 1 -0.032484375 -0.00125 0.006496875 0.360878
231 1 -0.032484375 -0.00125 0.007678125 0.376648
232 1 -0.032484375 -0.00125 0.008859375 0.32303
233 1 -0.032484375 -0.00125 0.010040625 0.324875
234 1 -0.032484375 -0.00125 0.011221875 0.284322
235 1 -0.032484375 -0.00125 0.012403125 0.268279
236 1 -0.032484375 -0.00125 0.013584375 0.245777
237 1 -0.032484375 -0.00125 0.014765625 0.214171
238 1 -0.032484375 -0.00125 0.015946875 0.212157
239 1 -0.032484375 -0.00125 0.017128125 0.171802
240 1 -0.032484375 -0.00125 0.018309375 0.187613
241 1 -0.032484375 0.000116666666667 -0.018309375 0.125419
242 1 -0.032484375 0.000116666666667 -0.017128125 0.203149
243 1 -0.032484375 0.000116666666667 -0.015946875 0.158234
244 1 -0.032484375 0.000116666666667 -0.014765625 0.23586
245 1 -0.032484375 0.000116666666667 -0.013584375 0.201333
246 1 -0.032484375 0.000116666666667 -0.012403125 0.27128
247 1 -0.032484375 0.000116666666667 -0.011221875 0.247757
248 1 -0.032484375 0.000116666666667 -0.010040625 0.302823
249 1 -0.032484375 0.000116666666667 -0.008859375 0.292176
250 1 -0.032484375 0.000116666666667 -0.007678125 0.330975
251 1 -0.032484375 0.000116666666667 -0.006496875 0.331809
252 1 -0.032484375 0.000116666666667 -0.005315625 0.355448
253 1 -0.032484375 0.000116666666667 -0.004134375 0.36749
254 1 -0.032484375 0.000116666666667 -0.002953125 0.376963
255 1 -0.032484375 0.000116666666667 -0.001771875 0.396085
256 1 -0.032484375 0.000116666666667 -0.000590625 0.391062
257 1 -0.032484375 0.000116666666667 0.000590625 0.418385
258 1 -0.032484375 0.000116666666667 0.001771875 0.39814
259 1 -0.032484375 0.000116666666667 0.002953125 0.425219
260 1 -0.032484375 0.000116666666667 0.004134375 0.386279
261 1 -0.032484375 0.000116666666667 0.005315625 0.412658
262 1 -0.032484375 0.000116666666667 0.006496875 0.360878
263 1 -0.032484375 0.000116666666667 0.007678125 0.376648
264 1 -0.032484375 0.000116666666667 0.008859375 0.32303
265 1 -0.032484375 0.000116666666667 0.010040625 0.324875
266 1 -0.032484375 0.000116666666667 0.011221875 0.284322
267 1 -0.032484375 0.000116666666667 0.012403125 0.268279
268 1 -0.032484375 0.000116666666667 0.013584375 0.245777
269 1 -0.032484375 0.000116666666667 0.014765625 0.214171
270 1 -0.032484375 0.000116666666667 0.015946875 0.212157
271 1 -0.032484375 0.000116666666667 0.017128125 0.171802
272 1 -0.032484375 0.000116666666667 0.018309375 0.187613
273 1 -0.031303125 -0.00261666666667 -0.019490625 0.258257
274 1 -0.031303125 -0.00261666666667 -0.018309375 0.213877
275 1 -0.031303125 -0.00261666666667 -0.017128125 0.300298
276 1 -0.031303125 -0.00261666666667 -0.015946875 0.264746
277 1 -0.031303125 -0.00261666666667 -0.014765625 0.352012
278 1 -0.031303125 -0.00261666666667 -0.013584375 0.318617
279 1 -0.031303125 -0.00261666666667 -0.012403125 0.401637
280 1 -0.031303125 -0.00261666666667 -0.011221875 0.372128
281 1 -0.031303125 -0.00261666666667 -0.010040625 0.446954
282 1 -0.031303125 -0.00261666666667 -0.008859375 0.416954
283 1 -0.031303125 -0.00261666666667 -0.007678125 0.481552
284 1 -0.031303125 -0.00261666666667 -0.006496875 0.453503
285 1 -0.031303125 -0.00261666666667 -0.005315625 0.509976
286 1 -0.031303125 -0.00261666666667 -0.004134375 0.480406
287 1 -0.031303125 -0.00261666666667 -0.002953125 0.529941
288 1 -0.031303125 -0.00261666666667 -0.001771875 0.501679
289 1 -0.031303125 -0.00261666666667 -0.000590625 0.544372
290 1 -0.031303125 -0.00261666666667 0.000590625 0.514052
291 1 -0.031303125 -0.00261666666667 0.001771875 0.549747
292 1 -0.031303125 -0.00261666666667 0.002953125 0.516489
293 1 -0.031303125 -0.00261666666667 0.004134375 0.540008
294 1 -0.031303125 -0.00261666666667 0.005315625 0.503166
295 1 -0.031303125 -0.00261666666667 0.006496875 0.516185
296 1 -0.031303125 -0.00261666666667 0.007678125 0.471839
297 1 -0.031303125 -0.00261666666667 0.008859375 0.478315
298 1 -0.031303125 -0.00261666666667 0.010040625 0.419757
299 1 -0.031303125 -0.00261666666667 0.011221875 0.426053
300 1 -0.031303125 -0.00261666666667 0.012403125 0.357061
301 1 -0.031303125 -0.00261666666667 0.013584375 0.370601
302 1 -0.031303125 -0.00261666666667 0.014765625 0.295634
303 1 -0.031303125 -0.00261666666667 0.015946875 0.317802
304 1 -0.031303125 -0.00261666666667 0.017128125 0.244521
305 1 -0.031303125 -0.00261666666667 0.018309375 0.275889
306 1 -0.031303125 -0.00261666666667 0.019490625 0.207626
307 1 -0.031303125 -0.00125 -0.019490625 0.258257
308 1 -0.031303125 -0.00125 -0.018309375 0.213877
309 1 -0.031303125 -0.00125 -0.017128125 0.300298
310 1 -0.031303125 -0.00125 -0.015946875 0.264746
311 1 -0.031303125 -0.00125 -0.014765625 0.352012
312 1 -0.031303125 -0.00125 -0.013584375 0.318617
313 1 -0.031303125 -0.00125 -0.012403125 0.401637
314 1 -0.031303125 -0.00125 -0.011221875 0.372128
315 1 -0.031303125 -0.00125 -0.010040625 0.446954
316 1 -0.031303125 -0.00125 -0.008859375 0.416954
317 1 -0.031303125 -0.00125 -0.007678125 0.481552
318 1 -0.031303125 -0.00125 -0.006496875 0.453503
319 1 -0.031303125 -0.00125 -0.005315625 0.509976
320 1 -0.031303125 -0.00125 -0.004134375 0.480406
321 1 -0.031303125 -0.00125 -0.002953125 0.529941
322 1 -0.031303125 -0.00125 -0.001771875 0.501679
323 1 -0.031303125 -0.00125 -0.000590625 0.544372
324 1 -0.031303125 -0.00125 0.000590625 0.514052
325 1 -0.031303125 -0.00125 0.001771875 0.549747
326 1 -0.031303125 -0.00125 0.002953125 0.516489
327 1 -0.031303125 -0.00125 0.004134375 0.540008
328 1 -0.031303125 -0.00125 0.005315625 0.503166
329 1 -0.031303125 -0.00125 0.006496875 0.516185
330 1 -0.031303125 -0.00125 0.007678125 0.471839
331 1 -0.031303125 -0.00125 0.008859375 0.478315
332 1 -0.031303125 -0.00125 0.010040625 0.419757
333 1 -0.031303125 -0.00125 0.011221875 0.426053
334 1 -0.031303125 -0.00125 0.012403125 0.357061
335 1 -0.031303125 -0.00125 0.013584375 0.370601
336 1 -0.031303125 -0.00125 0.014765625 0.295634
337 1 -0.031303125 -0.00125 0.015946875 0.317802
338 1 -0.031303125 -0.00125 0.017128125 0.244521
339 1 -0.031303125 -0.00125 0.018309375 0.275889
340 1 -0.031303125 -0.00125 0.019490625 0.207626
341 1 -0.031303125 0.000116666666667 -0.019490625 0.258257
342 1 -0.031303125 0.000116666666667 -0.018309375 0.213877
343 1 -0.031303125 0.000116666666667 -0.017128125 0.300298
344 1 -0.031303125 0.000116666666667 -0.015946875 0.264746
345 1 -0.031303125 0.000116666666667 -0.014765625 0.352012
346 1 -0.031303125 0.000116666666667 -0.013584375 0.318617
347 1 -0.031303125 0.000116666666667 -0.012403125 0.401637
348 1 -0.031303125 0.000116666666667 -0.011221875 0.372128
349 1 -0.031303125 0.000116666666667 -0.010040625 0.446954
350 1 -0.031303125 0.000116666666667 -0.008859375 0.416954
351 1 -0.031303125 0.000116666666667 -0.007678125 0.481552
352 1 -0.031303125 0.000116666666667 -0.006496875 0.453503
353 1 -0.031303125 0.000116666666667 -0.005315625 0.509976
354 1 -0.031303125 0.000116666666667 -0.004134375 0.480406
355 1 -0.031303125 0.000116666666667 -0.002953125 0.529941
356 1 -0.031303125 0.000116666666667 -0.001771875 0.501679
357 1 -0.031303125 0.000116666666667 -0.000590625 0.544372
358 1 -0.031303125 0.000116666666667 0.000590625 0.514052
359 1 -0.031303125 0.000116666666667 0.001771875 0.549747
360 1 -0.031303125 0.000116666666667 0.002953125 0.516489
361 1 -0.031303125 0.000116666666667 0.004134375 0.540008
362 1 -0.031303125 0.000116666666667 0.005315625 0.503166
363 1 -0.031303125 0.000116666666667 0.006496875 0.516185
364 1 -0.031303125 0.000116666666667 0.007678125 0.471839
365 1 -0.031303125 0.000116666666667 0.008859375 0.478315
366 1 -0.031303125 0.000116666666667 0.010040625 0.419757
367 1 -0.031303125 0.000116666666667 0.011221875 0.426053
368 1 -0.031303125 0.000116666666667 0.012403125 0.357061
369 1 -0.031303125 0.000116666666667 0.013584375 0.370601
370 1 -0.031303125 0.000116666666667 0.014765625 0.295634
371 1 -0.031303125 0.000116666666667 0.015946875 0.317802
372 1 -0.031303125 0.000116666666667 0.017128125 0.244521
373 1 -0.031303125 0.000116666666667 0.018309375 0.275889
374 1 -0.031303125 0.000116666666667 0.019490625 0.207626
375 1 -0.030121875 -0.00261666666667 -0.020671875 0.15787
376 1 -0.030121875 -0.00261666666667 -0.019490625 0.236981
377 1 -0.030121875 -0.00261666666667 -0.018309375 0.199763
378 1 -0.030121875 -0.00261666666667 -0.017128125 0.279702
379 1 -0.030121875 -0.00261666666667 -0.015946875 0.257124
380 1 -0.030121875 -0.00261666666667 -0.014765625 0.329489
381 1 -0.030121875 -0.00261666666667 -0.013584375 0.321002
382 1 -0.030121875 -0.00261666666667 -0.012403125 0.379936
383 1 -0.030121875 -0.00261666666667 -0.011221875 0.382896
384 1 -0.030121875 -0.00261666666667 -0.010040625 0.420769
385 1 -0.030121875 -0.00261666666667 -0.008859375 0.437128
386 1 -0.030121875 -0.00261666666667 -0.007678125 0.454
387 1 -0.030121875 -0.00261666666667 -0.006496875 0.480304
388 1 -0.030121875 -0.00261666666667 -0.005315625 0.475681
389 1 -0.030121875 -0.00261666666667 -0.004134375 0.516082
390 1 -0.030121875 -0.00261666666667 -0.002953125 0.493308
391 1 -0.030121875 -0.00261666666667 -0.001771875 0.542322
392 1 -0.030121875 -0.00261666666667 -0.000590625 0.504321
393 1 -0.030121875 -0.00261666666667 0.000590625 0.560479
394 1 -0.030121875 -0.00261666666667 0.001771875 0.508606
395 1 -0.030121875 -0.00261666666667 0.002953125 0.564234
396 1 -0.030121875 -0.00261666666667 0.004134375 0.493115
397 1 -0.030121875 -0.00261666666667 0.005315625 0.552364
398 1 -0.030121875 -0.00261666666667 0.006496875 0.466719
399 1 -0.030121875 -0.00261666666667 0.007678125 0.518373
400 1 -0.030121875 -0.00261666666667 0.008859375 0.424036
401 1 -0.030121875 -0.00261666666667 0.010040625 0.462882
402 1 -0.030121875 -0.00261666666667 0.011221875 0.372108
403 1 -0.030121875 -0.00261666666667 0.012403125 0.391966
404 1 -0.030121875 -0.00261666666667 0.013584375 0.318457
405 1 -0.030121875 -0.00261666666667 0.014765625 0.314648
406 1 -0.030121875 -0.00261666666667 0.015946875 0.271088
407 1 -0.030121875 -0.00261666666667 0.017128125 0.248393
408 1 -0.030121875 -0.00261666666667 0.018309375 0.23472
409 1 -0.030121875 -0.00261666666667 0.019490625 0.20001
410 1 -0.030121875 -0.00261666666667 0.020671875 0.209036
411 1 -0.030121875 -0.00125 -0.020671875 0.15787
412 1 -0.030121875 -0.00125 -0.019490625 0.236981
413 1 -0.030121875 -0.00125 -0.018309375 0.199763
414 1 -0.030121875 -0.00125 -0.017128125 0.279702
415 1 -0.030121875 -0.00125 -0.015946875 0.257124
416 1 -0.030121875 -0.00125 -0.014765625 0.329489
417 1 -0.030121875 -0.00125 -0.013584375 0.321002
418 1 -0.030121875 -0.00125 -0.012403125 0.379936
419 1 -0.030121875 -0.00125 -0.011221875 0.382896
420 1 -0.030121875 -0.00125 -0.010040625 0.420769
421 1 -0.030121875 -0.00125 -0.008859375 0.437128
422 1 -0.030121875 -0.00125 -0.007678125 0.454
423 1 -0.030121875 -0.00125 -0.006496875 0.480304
424 1 -0.030121875 -0.00125 -0.005315625 0.475681
425 1 -0.030121875 -0.00125 -0.004134375 0.516082
426 1 -0.030121875 -0.00125 -0.002953125 0.493308
427 1 -0.030121875 -0.00125 -0.001771875 0.542322
428 1 -0.030121875 -0.00125 -0.000590625 0.504321
429 1 -0.030121875 -0.00125 0.000590625 0.560479
430 1 -0.030121875 -0.00125 0.001771875 0.508606
431 1 -0.030121875 -0.00125 0.002953125 0.564234
432 1 -0.030121875 -0.00125 0.004134375 0.493115
433 1 -0.030121875 -0.00125 0.005315625 0.552364
434 1 -0.030121875 -0.00125 0.006496875 0.466719
435 1 -0.030121875 -0.00125 0.007678125 0.518373
436 1 -0.030121875 -0.00125 0.008859375 0.424036
437 1 -0.030121875 -0.00125 0.010040625 0.462882
438 1 -0.030121875 -0.00125 0.011221875 0.372108
439 1 -0.030121875 -0.00125 0.012403125 0.391966
440 1 -0.030121875 -0.00125 0.013584375 0.318457
441 1 -0.030121875 -0.00125 0.014765625 0.314648
442 1 -0.030121875 -0.00125 0.015946875 0.271088
443 1 -0.030121875 -0.00125 0.017128125 0.248393
444 1 -0.030121875 -0.00125 0.018309375 0.23472
445 1 -0.030121875 -0.00125 0.019490625 0.20001
446 1 -0.030121875 -0.00125 0.020671875 0.209036
447 1 -0.030121875 0.000116666666667 -0.020671875 0.15787
448 1 -0.030121875 0.000116666666667 -0.019490625 0.236981
449 1 -0.030121875 0.000116666666667 -0.018309375 0.199763
450 1 -0.030121875 0.000116666666667 -0.017128125 0.279702
451 1 -0.030121875 0.000116666666667 -0.015946875 0.257124
452 1 -0.030121875 0.000116666666667 -0.014765625 0.329489
453 1 -0.030121875 0.000116666666667 -0.013584375 0.321002
454 1 -0.030121875 0.000116666666667 -0.012403125 0.379936
455 1 -0.030121875 0.000116666666667 -0.011221875 0.382896
456 1 -0.030121875 0.000116666666667 -0.010040625 0.420769
457 1 -0.030121875 0.000116666666667 -0.008859375 0.437128
458 1 -0.030121875 0.000116666666667 -0.007678125 0.454
459 1 -0.030121875 0.000116666666667 -0.006496875 0.480304
460 1 -0.030121875 0.000116666666667 -0.005315625 0.475681
461 1 -0.030121875 0.000116666666667 -0.004134375 0.516082
462 1 -0.030121875 0.000116666666667 -0.002953125 0.493308
463 1 -0.030121875 0.000116666666667 -0.001771875 0.542322
464 1 -0.030121875 0.000116666666667 -0.000590625 0.504321
465 1 -0.030121875 0.000116666666667 0.000590625 0.560479
466 1 -0.030121875 0.000116666666667 0.001771875 0.508606
467 1 -0.030121875 0.000116666666667 0.002953125 0.564234
468 1 -0.030121875 0.000116666666667 0.004134375 0.493115
469 1 -0.030121875 0.000116666666667 0.005315625 0.552364
470 1 -0.030121875 0.000116666666667 0.006496875 0.466719
471 1 -0.030121875 0.000116666666667 0.007678125 0.518373
472 1 -0.030121875 0.000116666666667 0.008859375 0.424036
473 1 -0.030121875 0.000116666666667 0.010040625 0.462882
474 1 -0.030121875 0.000116666666667 0.011221875 0.372108
475 1 -0.030121875 0.000116666666667 0.012403125 0.391966
476 1 -0.030121875 0.000116666666667 0.013584375 0.318457
477 1 -0.030121875 0.000116666666667 0.014765625 0.314648
478 1 -0.030121875 0.000116666666667 0.015946875 0.271088
479 1 -0.030121875 0.000116666666667 0.017128125 0.248393
480 1 -0.030121875 0.000116666666667 0.018309375 0.23472
481 1 -0.030121875 0.000116666666667 0.019490625 0.20001
482 1 -0.030121875 0.000116666666667 0.020671875 0.209036
483 1 -0.028940625 -0.00261666666667 -0.021853125 0.306984
484 1 -0.028940625 -0.00261666666667 -0.020671875 0.277302
485 1 -0.028940625 -0.00261666666667 -0.019490625 0.356569
486 1 -0.028940625 -0.00261666666667 -0.018309375 0.338542
487 1 -0.028940625 -0.00261666666667 -0.017128125 0.413003
488 1 -0.028940625 -0.00261666666667 -0.015946875 0.406281
489 1 -0.028940625 -0.00261666666667 -0.014765625 0.474508
490 1 -0.028940625 -0.00261666666667 -0.013584375 0.461386
491 1 -0.028940625 -0.00261666666667 -0.012403125 0.522206
492 1 -0.028940625 -0.00261666666667 -0.011221875 0.50707
493 1 -0.028940625 -0.00261666666667 -0.010040625 0.562089
494 1 -0.028940625 -0.00261666666667 -0.008859375 0.541234
495 1 -0.028940625 -0.00261666666667 -0.007678125 0.591362
496 1 -0.028940625 -0.00261666666667 -0.006496875 0.570363
497 1 -0.028940625 -0.00261666666667 -0.005315625 0.615442
498 1 -0.028940625 -0.00261666666667 -0.004134375 0.590367
499 1 -0.028940625 -0.00261666666667 -0.002953125 0.630631
500 1 -0.028940625 -0.00261666666667 -0.001771875 0.605902
501 1 -0.028940625 -0.00261666666667 -0.000590625 0.641025
502 1 -0.028940625 -0.00261666666667 0.000590625 0.614212
503 1 -0.028940625 -0.00261666666667 0.001771875 0.64298
504 1 -0.028940625 -0.00261666666667 0.002953125 0.613585
505 1 -0.028940625 -0.00261666666667 0.004134375 0.631199
506 1 -0.028940625 -0.00261666666667 0.005315625 0.59863
507 1 -0.028940625 -0.00261666666667 0.006496875 0.606748
508 1 -0.028940625 -0.00261666666667 0.007678125 0.570891
509 1 -0.028940625 -0.00261666666667 0.008859375 0.570072
510 1 -0.028940625 -0.00261666666667 0.010040625 0.531063
511 1 -0.028940625 -0.00261666666667 0.011221875 0.522136
512 1 -0.028940625 -0.00261666666667 0.012403125 0.47875
513 1 -0.028940625 -0.00261666666667 0.013584375 0.466321
514 1 -0.028940625 -0.00261666666667 0.014765625 0.413445
515 1 -0.028940625 -0.00261666666667 0.015946875 0.405246
516 1 -0.028940625 -0.00261666666667 0.017128125 0.347778
517 1 -0.028940625 -0.00261666666667 0.018309375 0.352071
518 1 -0.028940625 -0.00261666666667 0.019490625 0.293771
519 1 -0.028940625 -0.00261666666667 0.020671875 0.313171
520 1 -0.028940625 -0.00261666666667 0.021853125 0.253949
521 1 -0.028940625 -0.00125 -0.021853125 0.306984
522 1 -0.028940625 -0.00125 -0.020671875 0.277302
523 1 -0.028940625 -0.00125 -0.019490625 0.356569
524 1 -0.028940625 -0.00125 -0.018309375 0.338542
525 1 -0.028940625 -0.00125 -0.017128125 0.413003
526 1 -0.028940625 -0.00125 -0.015946875 0.406281
527 1 -0.028940625 -0.00125 -0.014765625 0.474508
528 1 -0.028940625 -0.00125 -0.013584375 0.461386
529 1 -0.028940625 -0.00125 -0.012403125 0.522206
530 1 -0.028940625 -0.00125 -0.011221875 0.50707
531 1 -0.028940625 -0.00125 -0.010040625 0.562089
532 1 -0.028940625 -0.00125 -0.008859375 0.541234
533 1 -0.028940625 -0.00125 -0.007678125 0.591362
534 1 -0.028940625 -0.00125 -0.006496875 0.570363
535 1 -0.028940625 -0.00125 -0.005315625 0.615442
536 1 -0.028940625 -0.00125 -0.004134375 0.590367
537 1 -0.028940625 -0.00125 -0.002953125 0.630631