ITEM: TIMESTEP
0
ITEM: NUMBER OF ATOMS
9240
ITEM: BOX BOUNDS ss ss ss
-3.7007399999999996e-02 3.7007399999999996e-02
-2.0002499999999999e-03 2.5000000000000004e-07
-3.7007399999999996e-02 3.7007399999999996e-02
ITEM: ATOMS id type x y z c_1
0 1 -0.037209375 -0.00261666666667 -0.000590625 0.260809
1 1 -0.037209375 -0.00125 -0.000590625 0.260809
2 1 -0.037209375 0.000116666666667 -0.000590625 0.260809
3 1 -0.036028125 -0.00261666666667 -0.007678125 0.240098
4 1 -0.036028125 -0.00261666666667 -0.006496875 0.130231
5 1 -0.036028125 -0.00261666666667 -0.005315625 0.251536
6 1 -0.036028125 -0.00261666666667 -0.004134375 0.140549
7 1 -0.036028125 -0.00261666666667 -0.002953125 0.260486
8 1 -0.036028125 -0.00261666666667 -0.001771875 0.149729
9 1 -0.036028125 -0.00261666666667 -0.000590625 0.268206
10 1 -0.036028125 -0.00261666666667 0.000590625 0.155048
11 1 -0.036028125 -0.00261666666667 0.001771875 0.270825
12 1 -0.036028125 -0.00261666666667 0.002953125 0.15421
13 1 -0.036028125 -0.00261666666667 0.004134375 0.264612
14 1 -0.036028125 -0.00261666666667 0.005315625 0.143773
15 1 -0.036028125 -0.00261666666667 0.006496875 0.246801
16 1 -0.036028125 -0.00261666666667 0.007678125 0.126542
17 1 -0.036028125 -0.00125 -0.007678125 0.240098
18 1 -0.036028125 -0.00125 -0.006496875 0.130231
19 1 -0.036028125 -0.00125 -0.005315625 0.251536
20 1 -0.036028125 -0.00125 -0.004134375 0.140549
21 1 -0.036028125 -0.00125 -0.002953125 0.260486
22 1 -0.036028125 -0.00125 -0.001771875 0.149729
23 1 -0.036028125 -0.00125 -0.000590625 0.268206
24 1 -0.036028125 -0.00125 0.000590625 0.155048
25 1 -0.036028125 -0.00125 0.001771875 0.270825
26 1 -0.036028125 -0.00125 0.002953125 0.15421
27 1 -0.036028125 -0.00125 0.004134375 0.264612
28 1 -0.036028125 -0.00125 0.005315625 0.143773
29 1 -0.036028125 -0.00125 0.006496875 0.246801
30 1 -0.036028125 -0.00125 0.007678125 0.126542
31 1 -0.036028125 0.000116666666667 -0.007678125 0.240098
32 1 -0.036028125 0.000116666666667 -0.006496875 0.130231
33 1 -0.036028125 0.000116666666667 -0.005315625 0.251536
34 1 -0.036028125 0.000116666666667 -0.004134375 0.140549
35 1 -0.036028125 0.000116666666667 -0.002953125 0.260486
36 1 -0.036028125 0.000116666666667 -0.001771875 0.149729
37 1 -0.036028125 0.000116666666667 -0.000590625 0.268206
38 1 -0.036028125 0.000116666666667 0.000590625 0.155048
39 1 -0.036028125 0.000116666666667 0.001771875 0.270825
40 1 -0.036028125 0.000116666666667 0.002953125 0.15421
41 1 -0.036028125 0.000116666666667 0.004134375 0.264612
42 1 -0.036028125 0.000116666666667 0.005315625 0.143773
43 1 -0.036028125 0.000116666666667 0.006496875 0.246801
44 1 -0.036028125 0.000116666666667 0.007678125 0.126542
45 1 -0.034846875 -0.00261666666667 -0.011221875 0.101052
46 1 -0.034846875 -0.00261666666667 -0.010040625 0.131519
47 1 -0.034846875 -0.00261666666667 -0.008859375 0.12183
48 1 -0.034846875 -0.00261666666667 -0.007678125 0.146933
49 1 -0.034846875 -0.00261666666667 -0.006496875 0.137563
50 1 -0.034846875 -0.00261666666667 -0.005315625 0.15725
51 1 -0.034846875 -0.00261666666667 -0.004134375 0.150745
52 1 -0.034846875 -0.00261666666667 -0.002953125 0.166085
53 1 -0.034846875 -0.00261666666667 -0.001771875 0.162466
54 1 -0.034846875 -0.00261666666667 -0.000590625 0.17198
55 1 -0.034846875 -0.00261666666667 0.000590625 0.171006
56 1 -0.034846875 -0.00261666666667 0.001771875 0.174019
57 1 -0.034846875 -0.00261666666667 0.002953125 0.17121
58 1 -0.034846875 -0.00261666666667 0.004134375 0.165296
59 1 -0.034846875 -0.00261666666667 0.005315625 0.160615
60 1 -0.034846875 -0.00261666666667 0.006496875 0.148111
61 1 -0.034846875 -0.00261666666667 0.007678125 0.138788
62 1 -0.034846875 -0.00261666666667 0.008859375 0.123747
63 1 -0.034846875 -0.00261666666667 0.010040625 0.111329
64 1 -0.034846875 -0.00261666666667 0.011221875 0.0988053
65 1 -0.034846875 -0.00125 -0.011221875 0.101052
66 1 -0.034846875 -0.00125 -0.010040625 0.131519
67 1 -0.034846875 -0.00125 -0.008859375 0.12183
68 1 -0.034846875 -0.00125 -0.007678125 0.146933
69 1 -0.034846875 -0.00125 -0.006496875 0.137563
70 1 -0.034846875 -0.00125 -0.005315625 0.15725
71 1 -0.034846875 -0.00125 -0.004134375 0.150745
72 1 -0.034846875 -0.00125 -0.002953125 0.166085
73 1 -0.034846875 -0.00125 -0.001771875 0.162466
74 1 -0.034846875 -0.00125 -0.000590625 0.17198
75 1 -0.034846875 -0.00125 0.000590625 0.171006
76 1 -0.034846875 -0.00125 0.001771875 0.174019
77 1 -0.034846875 -0.00125 0.002953125 0.17121
78 1 -0.034846875 -0.00125 0.004134375 0.165296
79 1 -0.034846875 -0.00125 0.005315625 0.160615
80 1 -0.034846875 -0.00125 0.006496875 0.148111
81 1 -0.034846875 -0.00125 0.007678125 0.138788
82 1 -0.034846875 -0.00125 0.008859375 0.123747
83 1 -0.034846875 -0.00125 0.010040625 0.111329
84 1 -0.034846875 -0.00125 0.011221875 0.0988053
85 1 -0.034846875 0.000116666666667 -0.011221875 0.101052
86 1 -0.034846875 0.000116666666667 -0.010040625 0.131519
87 1 -0.034846875 0.000116666666667 -0.008859375 0.12183
88 1 -0.034846875 0.000116666666667 -0.007678125 0.146933
89 1 -0.034846875 0.000116666666667 -0.006496875 0.137563
90 1 -0.034846875 0.000116666666667 -0.005315625 0.15725
91 1 -0.034846875 0.000116666666667 -0.004134375 0.150745
92 1 -0.034846875 0.000116666666667 -0.002953125 0.166085
93 1 -0.034846875 0.000116666666667 -0.001771875 0.162466
94 1 -0.034846875 0.000116666666667 -0.000590625 0.17198
95 1 -0.034846875 0.000116666666667 0.000590625 0.171006
96 1 -0.034846875 0.000116666666667 0.001771875 0.174019
97 1 -0.034846875 0.000116666666667 0.002953125 0.17121
98 1 -0.034846875 0.000116666666667 0.004134375 0.165296
99 1 -0.034846875 0.000116666666667 0.005315625 0.160615
100 1 -0.034846875 0.000116666666667 0.006496875 0.148111
101 1 -0.034846875 0.000116666666667 0.007678125 0.138788
102 1 -0.034846875 0.000116666666667 0.008859375 0.123747
103 1 -0.034846875 0.000116666666667 0.010040625 0.111329
104 1 -0.034846875 0.000116666666667 0.011221875 0.0988053
105 1 -0.033665625 -0.00261666666667 -0.013584375 0.117701
106 1 -0.033665625 -0.00261666666667 -0.012403125 0.250966
107 1 -0.033665625 -0.00261666666667 -0.011221875 0.163589
108 1 -0.033665625 -0.00261666666667 -0.010040625 0.293483
109 1 -0.033665625 -0.00261666666667 -0.008859375 0.202856
110 1 -0.033665625 -0.00261666666667 -0.007678125 0.321246
111 1 -0.033665625 -0.00261666666667 -0.006496875 0.233035
112 1 -0.033665625 -0.00261666666667 -0.005315625 0.341229
113 1 -0.033665625 -0.00261666666667 -0.004134375 0.255629
114 1 -0.033665625 -0.00261666666667 -0.002953125 0.355765
115 1 -0.033665625 -0.00261666666667 -0.001771875 0.274279
116 1 -0.033665625 -0.00261666666667 -0.000590625 0.368454
117 1 -0.033665625 -0.00261666666667 0.000590625 0.285274
118 1 -0.033665625 -0.00261666666667 0.001771875 0.373234
119 1 -0.033665625 -0.00261666666667 0.002953125 0.283763
120 1 -0.033665625 -0.00261666666667 0.004134375 0.363924
121 1 -0.033665625 -0.00261666666667 0.005315625 0.261353
122 1 -0.033665625 -0.00261666666667 0.006496875 0.335563
123 1 -0.033665625 -0.00261666666667 0.007678125 0.220437
124 1 -0.033665625 -0.00261666666667 0.008859375 0.292193
125 1 -0.033665625 -0.00261666666667 0.010040625 0.168096
126 1 -0.033665625 -0.00261666666667 0.011221875 0.237614
127 1 -0.033665625 -0.00261666666667 0.012403125 0.116642
128 1 -0.033665625 -0.00261666666667 0.013584375 0.183351
129 1 -0.033665625 -0.00125 -0.013584375 0.117701
130 1 -0.033665625 -0.00125 -0.012403125 0.250966
131 1 -0.033665625 -0.00125 -0.011221875 0.163589
132 1 -0.033665625 -0.00125 -0.010040625 0.293483
133 1 -0.033665625 -0.00125 -0.008859375 0.202856
134 1 -0.033665625 -0.00125 -0.007678125 0.321246
135 1 -0.033665625 -0.00125 -0.006496875 0.233035
136 1 -0.033665625 -0.00125 -0.005315625 0.341229
137 1 -0.033665625 -0.00125 -0.004134375 0.255629
138 1 -0.033665625 -0.00125 -0.002953125 0.355765
139 1 -0.033665625 -0.00125 -0.001771875 0.274279
140 1 -0.033665625 -0.00125 -0.000590625 0.368454
141 1 -0.033665625 -0.00125 0.000590625 0.285274
142 1 -0.033665625 -0.00125 0.001771875 0.373234
143 1 -0.033665625 -0.00125 0.002953125 0.283763
144 1 -0.033665625 -0.00125 0.004134375 0.363924
145 1 -0.033665625 -0.00125 0.005315625 0.261353
146 1 -0.033665625 -0.00125 0.006496875 0.335563
147 1 -0.033665625 -0.00125 0.007678125 0.220437
148 1 -0.033665625 -0.00125 0.008859375 0.292193
149 1 -0.033665625 -0.00125 0.010040625 0.168096
150 1 -0.033665625 -0.00125 0.011221875 0.237614
151 1 -0.033665625 -0.00125 0.012403125 0.116642
152 1 -0.033665625 -0.00125 0.013584375 0.183351
153 1 -0.033665625 0.000116666666667 -0.013584375 0.117701
154 1 -0.033665625 0.000116666666667 -0.012403125 0.250966
155 1 -0.033665625 0.000116666666667 -0.011221875 0.163589
156 1 -0.033665625 0.000116666666667 -0.010040625 0.293483
157 1 -0.033665625 0.000116666666667 -0.008859375 0.202856
158 1 -0.033665625 0.000116666666667 -0.007678125 0.321246
159 1 -0.033665625 0.000116666666667 -0.006496875 0.233035
160 1 -0.033665625 0.000116666666667 -0.005315625 0.341229
161 1 -0.033665625 0.000116666666667 -0.004134375 0.255629
162 1 -0.033665625 0.000116666666667 -0.002953125 0.355765
163 1 -0.033665625 0.000116666666667 -0.001771875 0.274279
164 1 -0.033665625 0.000116666666667 -0.000590625 0.368454
165 1 -0.033665625 0.000116666666667 0.000590625 0.285274
166 1 -0.033665625 0.000116666666667 0.001771875 0.373234
167 1 -0.033665625 0.000116666666667 0.002953125 0.283763
168 1 -0.033665625 0.000116666666667 0.004134375 0.363924
169 1 -0.033665625 0.000116666666667 0.005315625 0.261353
170 1 -0.033665625 0.000116666666667 0.006496875 0.335563
171 1 -0.033665625 0.000116666666667 0.007678125 0.220437
172 1 -0.033665625 0.000116666666667 0.008859375 0.292193
173 1 -0.033665625 0.000116666666667 0.010040625 0.168096
174 1 -0.033665625 0.000116666666667 0.011221875 0.237614
175 1 -0.033665625 0.000116666666667 0.012403125 0.116642
176 1 -0.033665625 0.000116666666667 0.013584375 0.183351
177 1 -0.032484375 -0.00261666666667 -0.018309375 0.0576521
178 1 -0.032484375 -0.00261666666667 -0.017128125 0.0991436
179 1 -0.032484375 -0.00261666666667 -0.015946875 0.0978589
180 1 -0.032484375 -0.00261666666667 -0.014765625 0.146252
181 1 -0.032484375 -0.00261666666667 -0.013584375 0.161199
182 1 -0.032484375 -0.00261666666667 -0.012403125 0.201318
183 1 -0.032484375 -0.00261666666667 -0.011221875 0.223899
184 1 -0.032484375 -0.00261666666667 -0.010040625 0.243316
185 1 -0.032484375 -0.00261666666667 -0.008859375 0.276171
186 1 -0.032484375 -0.00261666666667 -0.007678125 0.27444
187 1 -0.032484375 -0.00261666666667 -0.006496875 0.312411
188 1 -0.032484375 -0.00261666666667 -0.005315625 0.293762
189 1 -0.032484375 -0.00261666666667 -0.004134375 0.33865
190 1 -0.032484375 -0.00261666666667 -0.002953125 0.306395
191 1 -0.032484375 -0.00261666666667 -0.001771875 0.359068
192 1 -0.032484375 -0.00261666666667 -0.000590625 0.315509
193 1 -0.032484375 -0.00261666666667 0.000590625 0.374837
194 1 -0.032484375 -0.00261666666667 0.001771875 0.319837
195 1 -0.032484375 -0.00261666666667 0.002953125 0.380634
196 1 -0.032484375 -0.00261666666667 0.004134375 0.308088
197 1 -0.032484375 -0.00261666666667 0.005315625 0.366071
198 1 -0.032484375 -0.00261666666667 0.006496875 0.276485
199 1 -0.032484375 -0.00261666666667 0.007678125 0.318362
200 1 -0.032484375 -0.00261666666667 0.008859375 0.224761
201 1 -0.032484375 -0.00261666666667 0.010040625 0.250005
202 1 -0.032484375 -0.00261666666667 0.011221875 0.167772
203 1 -0.032484375 -0.00261666666667 0.012403125 0.173384
204 1 -0.032484375 -0.00261666666667 0.013584375 0.114818
205 1 -0.032484375 -0.00261666666667 0.014765625 0.109177
206 1 -0.032484375 -0.00261666666667 0.015946875 0.0749144
207 1 -0.032484375 -0.00261666666667 0.017128125 0.0686834
208 1 -0.032484375 -0.00261666666667 0.018309375 0.0518492
209 1 -0.032484375 -0.00125 -0.018309375 0.0576521
210 1 -0.032484375 -0.00125 -0.017128125 0.0991436
211 1 -0.032484375 -0.00125 -0.015946875 0.0978589
212 1 -0.032484375 -0.00125 -0.014765625 0.146252
213 1 -0.032484375 -0.00125 -0.013584375 0.161199
214 1 -0.032484375 -0.00125 -0.012403125 0.201318
215 1 -0.032484375 -0.00125 -0.011221875 0.223899
216 1 -0.032484375 -0.00125 -0.010040625 0.243316
217 1 -0.032484375 -0.00125 -0.008859375 0.276171
218 1 -0.032484375 -0.00125 -0.007678125 0.27444
219 1 -0.032484375 -0.00125 -0.006496875 0.312411
220 1 -0.032484375 -0.00125 -0.005315625 0.293762
221 1 -0.032484375 -0.00125 -0.004134375 0.33865
222 1 -0.032484375 -0.00125 -0.002953125 0.306395
223 1 -0.032484375 -0.00125 -0.001771875 0.359068
224 1 -0.032484375 -0.00125 -0.000590625 0.315509
225 1 -0.032484375 -0.00125 0.000590625 0.374837
226 1 -0.032484375 -0.00125 0.001771875 0.319837
227 1 -0.032484375 -0.00125 0.002953125 0.380634
228 1 -0.032484375 -0.00125 0.004134375 0.308088
229 1 -0.032484375 -0.00125 0.005315625 0.366071
230 1 -0.032484375 -0.00125 0.006496875 0.276485
231 1 -0.032484375 -0.00125 0.007678125 0.318362
232 1 -0.032484375 -0.00125 0.008859375 0.224761
233 1 -0.032484375 -0.00125 0.010040625 0.250005
234 1 -0.032484375 -0.00125 0.011221875 0.167772
235 1 -0.032484375 -0.00125 0.012403125 0.173384
236 1 -0.032484375 -0.00125 0.013584375 0.114818
237 1 -0.032484375 -0.00125 0.014765625 0.109177
238 1 -0.032484375 -0.00125 0.015946875 0.0749144
239 1 -0.032484375 -0.00125 0.017128125 0.0686834
240 1 -0.032484375 -0.00125 0.018309375 0.0518492
241 1 -0.032484375 0.000116666666667 -0.018309375 0.0576521
242 1 -0.032484375 0.000116666666667 -0.017128125 0.0991436
243 1 -0.032484375 0.000116666666667 -0.015946875 0.0978589
244 1 -0.032484375 0.000116666666667 -0.014765625 0.146252
245 1 -0.032484375 0.000116666666667 -0.013584375 0.161199
246 1 -0.032484375 0.000116666666667 -0.012403125 0.201318
247 1 -0.032484375 0.000116666666667 -0.011221875 0.223899
248 1 -0.032484375 0.000116666666667 -0.010040625 0.243316
249 1 -0.032484375 0.000116666666667 -0.008859375 0.276171
250 1 -0.032484375 0.000116666666667 -0.007678125 0.27444
251 1 -0.032484375 0.000116666666667 -0.006496875 0.312411
252 1 -0.032484375 0.000116666666667 -0.005315625 0.293762
253 1 -0.032484375 0.000116666666667 -0.004134375 0.33865
254 1 -0.032484375 0.000116666666667 -0.002953125 0.306395
255 1 -0.032484375 0.000116666666667 -0.001771875 0.359068
256 1 -0.032484375 0.000116666666667 -0.000590625 0.315509
257 1 -0.032484375 0.000116666666667 0.000590625 0.374837
258 1 -0.032484375 0.000116666666667 0.001771875 0.319837
259 1 -0.032484375 0.000116666666667 0.002953125 0.380634
260 1 -0.032484375 0.000116666666667 0.004134375 0.308088
261 1 -0.032484375 0.000116666666667 0.005315625 0.366071
262 1 -0.032484375 0.000116666666667 0.006496875 0.276485
263 1 -0.032484375 0.000116666666667 0.007678125 0.318362
264 1 -0.032484375 0.000116666666667 0.008859375 0.224761
265 1 -0.032484375 0.000116666666667 0.010040625 0.250005
266 1 -0.032484375 0.000116666666667 0.011221875 0.167772
267 1 -0.032484375 0.000116666666667 0.012403125 0.173384
268 1 -0.032484375 0.000116666666667 0.013584375 0.114818
269 1 -0.032484375 0.000116666666667 0.014765625 0.109177
270 1 -0.032484375 0.000116666666667 0.015946875 0.0749144
271 1 -0.032484375 0.000116666666667 0.017128125 0.0686834
272 1 -0.032484375 0.000116666666667 0.018309375 0.0518492
273 1 -0.031303125 -0.00261666666667 -0.019490625 0.161675
274 1 -0.031303125 -0.00261666666667 -0.018309375 0.112712
275 1 -0.031303125 -0.00261666666667 -0.017128125 0.239362
276 1 -0.031303125 -0.00261666666667 -0.015946875 0.210921
277 1 -0.031303125 -0.00261666666667 -0.014765625 0.332649
278 1 -0.031303125 -0.00261666666667 -0.013584375 0.321926
279 1 -0.031303125 -0.00261666666667 -0.012403125 0.410423
280 1 -0.031303125 -0.00261666666667 -0.011221875 0.414015
281 1 -0.031303125 -0.00261666666667 -0.010040625 0.459062
282 1 -0.031303125 -0.00261666666667 -0.008859375 0.472903
283 1 -0.031303125 -0.00261666666667 -0.007678125 0.488595
284 1 -0.031303125 -0.00261666666667 -0.006496875 0.511414
285 1 -0.031303125 -0.00261666666667 -0.005315625 0.507644
286 1 -0.031303125 -0.00261666666667 -0.004134375 0.531298
287 1 -0.031303125 -0.00261666666667 -0.002953125 0.51773
288 1 -0.031303125 -0.00261666666667 -0.001771875 0.544676
289 1 -0.031303125 -0.00261666666667 -0.000590625 0.529002
290 1 -0.031303125 -0.00261666666667 0.000590625 0.555362
291 1 -0.031303125 -0.00261666666667 0.001771875 0.535898
292 1 -0.031303125 -0.00261666666667 0.002953125 0.564033
293 1 -0.031303125 -0.00261666666667 0.004134375 0.53474
294 1 -0.031303125 -0.00261666666667 0.005315625 0.55121
295 1 -0.031303125 -0.00261666666667 0.006496875 0.514289
296 1 -0.031303125 -0.00261666666667 0.007678125 0.507473
297 1 -0.031303125 -0.00261666666667 0.008859375 0.469965
298 1 -0.031303125 -0.00261666666667 0.010040625 0.427607
299 1 -0.031303125 -0.00261666666667 0.011221875 0.402226
300 1 -0.031303125 -0.00261666666667 0.012403125 0.320915
301 1 -0.031303125 -0.00261666666667 0.013584375 0.316341
302 1 -0.031303125 -0.00261666666667 0.014765625 0.209778
303 1 -0.031303125 -0.00261666666667 0.015946875 0.230854
304 1 -0.031303125 -0.00261666666667 0.017128125 0.125302
305 1 -0.031303125 -0.00261666666667 0.018309375 0.164748
306 1 -0.031303125 -0.00261666666667 0.019490625 0.0739893
307 1 -0.031303125 -0.00125 -0.019490625 0.161675
308 1 -0.031303125 -0.00125 -0.018309375 0.112712
309 1 -0.031303125 -0.00125 -0.017128125 0.239362
310 1 -0.031303125 -0.00125 -0.015946875 0.210921
311 1 -0.031303125 -0.00125 -0.014765625 0.332649
312 1 -0.031303125 -0.00125 -0.013584375 0.321926
313 1 -0.031303125 -0.00125 -0.012403125 0.410423
314 1 -0.031303125 -0.00125 -0.011221875 0.414015
315 1 -0.031303125 -0.00125 -0.010040625 0.459062
316 1 -0.031303125 -0.00125 -0.008859375 0.472903
317 1 -0.031303125 -0.00125 -0.007678125 0.488595
318 1 -0.031303125 -0.00125 -0.006496875 0.511414
319 1 -0.031303125 -0.00125 -0.005315625 0.507644
320 1 -0.031303125 -0.00125 -0.004134375 0.531298
321 1 -0.031303125 -0.00125 -0.002953125 0.51773
322 1 -0.031303125 -0.00125 -0.001771875 0.544676
323 1 -0.031303125 -0.00125 -0.000590625 0.529002
324 1 -0.031303125 -0.00125 0.000590625 0.555362
325 1 -0.031303125 -0.00125 0.001771875 0.535898
326 1 -0.031303125 -0.00125 0.002953125 0.564033
327 1 -0.031303125 -0.00125 0.004134375 0.53474
328 1 -0.031303125 -0.00125 0.005315625 0.55121
329 1 -0.031303125 -0.00125 0.006496875 0.514289
330 1 -0.031303125 -0.00125 0.007678125 0.507473
331 1 -0.031303125 -0.00125 0.008859375 0.469965
332 1 -0.031303125 -0.00125 0.010040625 0.427607
333 1 -0.031303125 -0.00125 0.011221875 0.402226
334 1 -0.031303125 -0.00125 0.012403125 0.320915
335 1 -0.031303125 -0.00125 0.013584375 0.316341
336 1 -0.031303125 -0.00125 0.014765625 0.209778
337 1 -0.031303125 -0.00125 0.015946875 0.230854
338 1 -0.031303125 -0.00125 0.017128125 0.125302
339 1 -0.031303125 -0.00125 0.018309375 0.164748
340 1 -0.031303125 -0.00125 0.019490625 0.0739893
341 1 -0.031303125 0.000116666666667 -0.019490625 0.161675
342 1 -0.031303125 0.000116666666667 -0.018309375 0.112712
343 1 -0.031303125 0.000116666666667 -0.017128125 0.239362
344 1 -0.031303125 0.000116666666667 -0.015946875 0.210921
345 1 -0.031303125 0.000116666666667 -0.014765625 0.332649
346 1 -0.031303125 0.000116666666667 -0.013584375 0.321926
347 1 -0.031303125 0.000116666666667 -0.012403125 0.410423
348 1 -0.031303125 0.000116666666667 -0.011221875 0.414015
349 1 -0.031303125 0.000116666666667 -0.010040625 0.459062
350 1 -0.031303125 0.000116666666667 -0.008859375 0.472903
351 1 -0.031303125 0.000116666666667 -0.007678125 0.488595
352 1 -0.031303125 0.000116666666667 -0.006496875 0.511414
353 1 -0.031303125 0.000116666666667 -0.005315625 0.507644
354 1 -0.031303125 0.000116666666667 -0.004134375 0.531298
355 1 -0.031303125 0.000116666666667 -0.002953125 0.51773
356 1 -0.031303125 0.000116666666667 -0.001771875 0.544676
357 1 -0.031303125 0.000116666666667 -0.000590625 0.529002
358 1 -0.031303125 0.000116666666667 0.000590625 0.555362
359 1 -0.031303125 0.000116666666667 0.001771875 0.535898
360 1 -0.031303125 0.000116666666667 0.002953125 0.564033
361 1 -0.031303125 0.000116666666667 0.004134375 0.53474
362 1 -0.031303125 0.000116666666667 0.005315625 0.55121
363 1 -0.031303125 0.000116666666667 0.006496875 0.514289
364 1 -0.031303125 0.000116666666667 0.007678125 0.507473
365 1 -0.031303125 0.000116666666667 0.008859375 0.469965
366 1 -0.031303125 0.000116666666667 0.010040625 0.427607
367 1 -0.031303125 0.000116666666667 0.011221875 0.402226
368 1 -0.031303125 0.000116666666667 0.012403125 0.320915
369 1 -0.031303125 0.000116666666667 0.013584375 0.316341
370 1 -0.031303125 0.000116666666667 0.014765625 0.209778
371 1 -0.031303125 0.000116666666667 0.015946875 0.230854
372 1 -0.031303125 0.000116666666667 0.017128125 0.125302
373 1 -0.031303125 0.000116666666667 0.018309375 0.164748
374 1 -0.031303125 0.000116666666667 0.019490625 0.0739893
375 1 -0.030121875 -0.00261666666667 -0.020671875 0.0667595
376 1 -0.030121875 -0.00261666666667 -0.019490625 0.123497
377 1 -0.030121875 -0.00261666666667 -0.018309375 0.1407
378 1 -0.030121875 -0.00261666666667 -0.017128125 0.22078
379 1 -0.030121875 -0.00261666666667 -0.015946875 0.252957
380 1 -0.030121875 -0.00261666666667 -0.014765625 0.31942
381 1 -0.030121875 -0.00261666666667 -0.013584375 0.362347
382 1 -0.030121875 -0.00261666666667 -0.012403125 0.390933
383 1 -0.030121875 -0.00261666666667 -0.011221875 0.435321
384 1 -0.030121875 -0.00261666666667 -0.010040625 0.431191
385 1 -0.030121875 -0.00261666666667 -0.008859375 0.478983
386 1 -0.030121875 -0.00261666666667 -0.007678125 0.459057
387 1 -0.030121875 -0.00261666666667 -0.006496875 0.504853
388 1 -0.030121875 -0.00261666666667 -0.005315625 0.475029
389 1 -0.030121875 -0.00261666666667 -0.004134375 0.521279
390 1 -0.030121875 -0.00261666666667 -0.002953125 0.483353
391 1 -0.030121875 -0.00261666666667 -0.001771875 0.535495
392 1 -0.030121875 -0.00261666666667 -0.000590625 0.490999
393 1 -0.030121875 -0.00261666666667 0.000590625 0.551807
394 1 -0.030121875 -0.00261666666667 0.001771875 0.49743
395 1 -0.030121875 -0.00261666666667 0.002953125 0.566228
396 1 -0.030121875 -0.00261666666667 0.004134375 0.492608
397 1 -0.030121875 -0.00261666666667 0.005315625 0.571515
398 1 -0.030121875 -0.00261666666667 0.006496875 0.468911
399 1 -0.030121875 -0.00261666666667 0.007678125 0.550241
400 1 -0.030121875 -0.00261666666667 0.008859375 0.42031
401 1 -0.030121875 -0.00261666666667 0.010040625 0.502199
402 1 -0.030121875 -0.00261666666667 0.011221875 0.355018
403 1 -0.030121875 -0.00261666666667 0.012403125 0.416408
404 1 -0.030121875 -0.00261666666667 0.013584375 0.267476
405 1 -0.030121875 -0.00261666666667 0.014765625 0.29105
406 1 -0.030121875 -0.00261666666667 0.015946875 0.173726
407 1 -0.030121875 -0.00261666666667 0.017128125 0.177763
408 1 -0.030121875 -0.00261666666667 0.018309375 0.10988
409 1 -0.030121875 -0.00261666666667 0.019490625 0.105353
410 1 -0.030121875 -0.00261666666667 0.020671875 0.0738718
411 1 -0.030121875 -0.00125 -0.020671875 0.0667595
412 1 -0.030121875 -0.00125 -0.019490625 0.123497
413 1 -0.030121875 -0.00125 -0.018309375 0.1407
414 1 -0.030121875 -0.00125 -0.017128125 0.22078
415 1 -0.030121875 -0.00125 -0.015946875 0.252957
416 1 -0.030121875 -0.00125 -0.014765625 0.31942
417 1 -0.030121875 -0.00125 -0.013584375 0.362347
418 1 -0.030121875 -0.00125 -0.012403125 0.390933
419 1 -0.030121875 -0.00125 -0.011221875 0.435321
420 1 -0.030121875 -0.00125 -0.010040625 0.431191
421 1 -0.030121875 -0.00125 -0.008859375 0.478983
422 1 -0.030121875 -0.00125 -0.007678125 0.459057
423 1 -0.030121875 -0.00125 -0.006496875 0.504853
424 1 -0.030121875 -0.00125 -0.005315625 0.475029
425 1 -0.030121875 -0.00125 -0.004134375 0.521279
426 1 -0.030121875 -0.00125 -0.002953125 0.483353
427 1 -0.030121875 -0.00125 -0.001771875 0.535495
428 1 -0.030121875 -0.00125 -0.000590625 0.490999
429 1 -0.030121875 -0.00125 0.000590625 0.551807
430 1 -0.030121875 -0.00125 0.001771875 0.49743
431 1 -0.030121875 -0.00125 0.002953125 0.566228
432 1 -0.030121875 -0.00125 0.004134375 0.492608
433 1 -0.030121875 -0.00125 0.005315625 0.571515
434 1 -0.030121875 -0.00125 0.006496875 0.468911
435 1 -0.030121875 -0.00125 0.007678125 0.550241
436 1 -0.030121875 -0.00125 0.008859375 0.42031
437 1 -0.030121875 -0.00125 0.010040625 0.502199
438 1 -0.030121875 -0.00125 0.011221875 0.355018
439 1 -0.030121875 -0.00125 0.012403125 0.416408
440 1 -0.030121875 -0.00125 0.013584375 0.267476
441 1 -0.030121875 -0.00125 0.014765625 0.29105
442 1 -0.030121875 -0.00125 0.015946875 0.173726
443 1 -0.030121875 -0.00125 0.017128125 0.177763
444 1 -0.030121875 -0.00125 0.018309375 0.10988
445 1 -0.030121875 -0.00125 0.019490625 0.105353
446 1 -0.030121875 -0.00125 0.020671875 0.0738718
447 1 -0.030121875 0.000116666666667 -0.020671875 0.0667595
448 1 -0.030121875 0.000116666666667 -0.019490625 0.123497
449 1 -0.030121875 0.000116666666667 -0.018309375 0.1407
450 1 -0.030121875 0.000116666666667 -0.017128125 0.22078
451 1 -0.030121875 0.000116666666667 -0.015946875 0.252957
452 1 -0.030121875 0.000116666666667 -0.014765625 0.31942
453 1 -0.030121875 0.000116666666667 -0.013584375 0.362347
454 1 -0.030121875 0.000116666666667 -0.012403125 0.390933
455 1 -0.030121875 0.000116666666667 -0.011221875 0.435321
456 1 -0.030121875 0.000116666666667 -0.010040625 0.431191
457 1 -0.030121875 0.000116666666667 -0.008859375 0.478983
458 1 -0.030121875 0.000116666666667 -0.007678125 0.459057
459 1 -0.030121875 0.000116666666667 -0.006496875 0.504853
460 1 -0.030121875 0.000116666666667 -0.005315625 0.475029
461 1 -0.030121875 0.000116666666667 -0.004134375 0.521279
462 1 -0.030121875 0.000116666666667 -0.002953125 0.483353
463 1 -0.030121875 0.000116666666667 -0.001771875 0.535495
464 1 -0.030121875 0.000116666666667 -0.000590625 0.490999
465 1 -0.030121875 0.000116666666667 0.000590625 0.551807
466 1 -0.030121875 0.000116666666667 0.001771875 0.49743
467 1 -0.030121875 0.000116666666667 0.002953125 0.566228
468 1 -0.030121875 0.000116666666667 0.004134375 0.492608
469 1 -0.030121875 0.000116666666667 0.005315625 0.571515
470 1 -0.030121875 0.000116666666667 0.006496875 0.468911
471 1 -0.030121875 0.000116666666667 0.007678125 0.550241
472 1 -0.030121875 0.000116666666667 0.008859375 0.42031
473 1 -0.030121875 0.000116666666667 0.010040625 0.502199
474 1 -0.030121875 0.000116666666667 0.011221875 0.355018
475 1 -0.030121875 0.000116666666667 0.012403125 0.416408
476 1 -0.030121875 0.000116666666667 0.013584375 0.267476
477 1 -0.030121875 0.000116666666667 0.014765625 0.29105
478 1 -0.030121875 0.000116666666667 0.015946875 0.173726
479 1 -0.030121875 0.000116666666667 0.017128125 0.177763
480 1 -0.030121875 0.000116666666667 0.018309375 0.10988
481 1 -0.030121875 0.000116666666667 0.019490625 0.105353
482 1 -0.030121875 0.000116666666667 0.020671875 0.0738718
483 1 -0.028940625 -0.00261666666667 -0.021853125 0.16703
484 1 -0.028940625 -0.00261666666667 -0.020671875 0.133522
485 1 -0.028940625 -0.00261666666667 -0.019490625 0.267431
486 1 -0.028940625 -0.00261666666667 -0.018309375 0.268526
487 1 -0.028940625 -0.00261666666667 -0.017128125 0.384124
488 1 -0.028940625 -0.00261666666667 -0.015946875 0.420153
489 1 -0.028940625 -0.00261666666667 -0.014765625 0.474571
490 1 -0.028940625 -0.00261666666667 -0.013584375 0.504384
491 1 -0.028940625 -0.00261666666667 -0.012403125 0.519086
492 1 -0.028940625 -0.00261666666667 -0.011221875 0.541725
493 1 -0.028940625 -0.00261666666667 -0.010040625 0.546723
494 1 -0.028940625 -0.00261666666667 -0.008859375 0.563607
495 1 -0.028940625 -0.00261666666667 -0.007678125 0.561688
496 1 -0.028940625 -0.00261666666667 -0.006496875 0.579296
497 1 -0.028940625 -0.00261666666667 -0.005315625 0.572875
498 1 -0.028940625 -0.00261666666667 -0.004134375 0.588788
499 1 -0.028940625 -0.00261666666667 -0.002953125 0.580152
500 1 -0.028940625 -0.00261666666667 -0.001771875 0.599433
501 1 -0.028940625 -0.00261666666667 -0.000590625 0.591231
502 1 -0.028940625 -0.00261666666667 0.000590625 0.610132
503 1 -0.028940625 -0.00261666666667 0.001771875 0.599624
504 1 -0.028940625 -0.00261666666667 0.002953125 0.620076
505 1 -0.028940625 -0.00261666666667 0.004134375 0.602339
506 1 -0.028940625 -0.00261666666667 0.005315625 0.622518
507 1 -0.028940625 -0.00261666666667 0.006496875 0.595131
508 1 -0.028940625 -0.00261666666667 0.007678125 0.61661
509 1 -0.028940625 -0.00261666666667 0.008859375 0.575683
510 1 -0.028940625 -0.00261666666667 0.010040625 0.599087
511 1 -0.028940625 -0.00261666666667 0.011221875 0.540698
512 1 -0.028940625 -0.00261666666667 0.012403125 0.554856
513 1 -0.028940625 -0.00261666666667 0.013584375 0.481438
514 1 -0.028940625 -0.00261666666667 0.014765625 0.450863
515 1 -0.028940625 -0.00261666666667 0.015946875 0.384872
516 1 -0.028940625 -0.00261666666667 0.017128125 0.307979
517 1 -0.028940625 -0.00261666666667 0.018309375 0.285825
518 1 -0.028940625 -0.00261666666667 0.019490625 0.194656
519 1 -0.028940625 -0.00261666666667 0.020671875 0.212805
520 1 -0.028940625 -0.00261666666667 0.021853125 0.123506
521 1 -0.028940625 -0.00125 -0.021853125 0.16703
522 1 -0.028940625 -0.00125 -0.020671875 0.133522
523 1 -0.028940625 -0.00125 -0.019490625 0.267431
524 1 -0.028940625 -0.00125 -0.018309375 0.268526
525 1 -0.028940625 -0.00125 -0.017128125 0.384124
526 1 -0.028940625 -0.00125 -0.015946875 0.420153
527 1 -0.028940625 -0.00125 -0.014765625 0.474571
528 1 -0.028940625 -0.00125 -0.013584375 0.504384
529 1 -0.028940625 -0.00125 -0.012403125 0.519086
530 1 -0.028940625 -0.00125 -0.011221875 0.541725
531 1 -0.028940625 -0.00125 -0.010040625 0.546723
532 1 -0.028940625 -0.00125 -0.008859375 0.563607
533 1 -0.028940625 -0.00125 -0.007678125 0.561688
534 1 -0.028940625 -0.00125 -0.006496875 0.579296
535 1 -0.028940625 -0.00125 -0.005315625 0.572875
536 1 -0.028940625 -0.00125 -0.004134375 0.588788
537 1 -0.028940625 -0.00125 -0.002953125 0.580152