ITEM: TIMESTEP
0
ITEM: NUMBER OF ATOMS
9240
ITEM: BOX BOUNDS ss ss ss
-3.7007399999999996e-02 3.7007399999999996e-02
-2.0002499999999999e-03 2.5000000000000004e-07
-3.7007399999999996e-02 3.7007399999999996e-02
ITEM: ATOMS id type x y z c_1
0 1 -0.037209375 -0.00261666666667 -0.000590625 0.356993
1 1 -0.037209375 -0.00125 -0.000590625 0.356993
2 1 -0.037209375 0.000116666666667 -0.000590625 0.356993
3 1 -0.036028125 -0.00261666666667 -0.007678125 0.381117
4 1 -0.036028125 -0.00261666666667 -0.006496875 0.288293
5 1 -0.036028125 -0.00261666666667 -0.005315625 0.396816
6 1 -0.036028125 -0.00261666666667 -0.004134375 0.30392
7 1 -0.036028125 -0.00261666666667 -0.002953125 0.410477
8 1 -0.036028125 -0.00261666666667 -0.001771875 0.319589
9 1 -0.036028125 -0.00261666666667 -0.000590625 0.423935
10 1 -0.036028125 -0.00261666666667 0.000590625 0.332074
11 1 -0.036028125 -0.00261666666667 0.001771875 0.431841
12 1 -0.036028125 -0.00261666666667 0.002953125 0.337667
13 1 -0.036028125 -0.00261666666667 0.004134375 0.430316
14 1 -0.036028125 -0.00261666666667 0.005315625 0.332186
15 1 -0.036028125 -0.00261666666667 0.006496875 0.418214
16 1 -0.036028125 -0.00261666666667 0.007678125 0.317469
17 1 -0.036028125 -0.00125 -0.007678125 0.381117
18 1 -0.036028125 -0.00125 -0.006496875 0.288293
19 1 -0.036028125 -0.00125 -0.005315625 0.396816
20 1 -0.036028125 -0.00125 -0.004134375 0.30392
21 1 -0.036028125 -0.00125 -0.002953125 0.410477
22 1 -0.036028125 -0.00125 -0.001771875 0.319589
23 1 -0.036028125 -0.00125 -0.000590625 0.423935
24 1 -0.036028125 -0.00125 0.000590625 0.332074
25 1 -0.036028125 -0.00125 0.001771875 0.431841
26 1 -0.036028125 -0.00125 0.002953125 0.337667
27 1 -0.036028125 -0.00125 0.004134375 0.430316
28 1 -0.036028125 -0.00125 0.005315625 0.332186
29 1 -0.036028125 -0.00125 0.006496875 0.418214
30 1 -0.036028125 -0.00125 0.007678125 0.317469
31 1 -0.036028125 0.000116666666667 -0.007678125 0.381117
32 1 -0.036028125 0.000116666666667 -0.006496875 0.288293
33 1 -0.036028125 0.000116666666667 -0.005315625 0.396816
34 1 -0.036028125 0.000116666666667 -0.004134375 0.30392
35 1 -0.036028125 0.000116666666667 -0.002953125 0.410477
36 1 -0.036028125 0.000116666666667 -0.001771875 0.319589
37 1 -0.036028125 0.000116666666667 -0.000590625 0.423935
38 1 -0.036028125 0.000116666666667 0.000590625 0.332074
39 1 -0.036028125 0.000116666666667 0.001771875 0.431841
40 1 -0.036028125 0.000116666666667 0.002953125 0.337667
41 1 -0.036028125 0.000116666666667 0.004134375 0.430316
42 1 -0.036028125 0.000116666666667 0.005315625 0.332186
43 1 -0.036028125 0.000116666666667 0.006496875 0.418214
44 1 -0.036028125 0.000116666666667 0.007678125 0.317469
45 1 -0.034846875 -0.00261666666667 -0.011221875 0.228193
46 1 -0.034846875 -0.00261666666667 -0.010040625 0.283429
47 1 -0.034846875 -0.00261666666667 -0.008859375 0.250584
48 1 -0.034846875 -0.00261666666667 -0.007678125 0.29733
49 1 -0.034846875 -0.00261666666667 -0.006496875 0.272759
50 1 -0.034846875 -0.00261666666667 -0.005315625 0.310776
51 1 -0.034846875 -0.00261666666667 -0.004134375 0.296263
52 1 -0.034846875 -0.00261666666667 -0.002953125 0.323429
53 1 -0.034846875 -0.00261666666667 -0.001771875 0.319156
54 1 -0.034846875 -0.00261666666667 -0.000590625 0.334997
55 1 -0.034846875 -0.00261666666667 0.000590625 0.338106
56 1 -0.034846875 -0.00261666666667 0.001771875 0.343969
57 1 -0.034846875 -0.00261666666667 0.002953125 0.347141
58 1 -0.034846875 -0.00261666666667 0.004134375 0.340192
59 1 -0.034846875 -0.00261666666667 0.005315625 0.342907
60 1 -0.034846875 -0.00261666666667 0.006496875 0.327775
61 1 -0.034846875 -0.00261666666667 0.007678125 0.32421
62 1 -0.034846875 -0.00261666666667 0.008859375 0.305796
63 1 -0.034846875 -0.00261666666667 0.010040625 0.294416
64 1 -0.034846875 -0.00261666666667 0.011221875 0.28197
65 1 -0.034846875 -0.00125 -0.011221875 0.228193
66 1 -0.034846875 -0.00125 -0.010040625 0.283429
67 1 -0.034846875 -0.00125 -0.008859375 0.250584
68 1 -0.034846875 -0.00125 -0.007678125 0.29733
69 1 -0.034846875 -0.00125 -0.006496875 0.272759
70 1 -0.034846875 -0.00125 -0.005315625 0.310776
71 1 -0.034846875 -0.00125 -0.004134375 0.296263
72 1 -0.034846875 -0.00125 -0.002953125 0.323429
73 1 -0.034846875 -0.00125 -0.001771875 0.319156
74 1 -0.034846875 -0.00125 -0.000590625 0.334997
75 1 -0.034846875 -0.00125 0.000590625 0.338106
76 1 -0.034846875 -0.00125 0.001771875 0.343969
77 1 -0.034846875 -0.00125 0.002953125 0.347141
78 1 -0.034846875 -0.00125 0.004134375 0.340192
79 1 -0.034846875 -0.00125 0.005315625 0.342907
80 1 -0.034846875 -0.00125 0.006496875 0.327775
81 1 -0.034846875 -0.00125 0.007678125 0.32421
82 1 -0.034846875 -0.00125 0.008859375 0.305796
83 1 -0.034846875 -0.00125 0.010040625 0.294416
84 1 -0.034846875 -0.00125 0.011221875 0.28197
85 1 -0.034846875 0.000116666666667 -0.011221875 0.228193
86 1 -0.034846875 0.000116666666667 -0.010040625 0.283429
87 1 -0.034846875 0.000116666666667 -0.008859375 0.250584
88 1 -0.034846875 0.000116666666667 -0.007678125 0.29733
89 1 -0.034846875 0.000116666666667 -0.006496875 0.272759
90 1 -0.034846875 0.000116666666667 -0.005315625 0.310776
91 1 -0.034846875 0.000116666666667 -0.004134375 0.296263
92 1 -0.034846875 0.000116666666667 -0.002953125 0.323429
93 1 -0.034846875 0.000116666666667 -0.001771875 0.319156
94 1 -0.034846875 0.000116666666667 -0.000590625 0.334997
95 1 -0.034846875 0.000116666666667 0.000590625 0.338106
96 1 -0.034846875 0.000116666666667 0.001771875 0.343969
97 1 -0.034846875 0.000116666666667 0.002953125 0.347141
98 1 -0.034846875 0.000116666666667 0.004134375 0.340192
99 1 -0.034846875 0.000116666666667 0.005315625 0.342907
100 1 -0.034846875 0.000116666666667 0.006496875 0.327775
101 1 -0.034846875 0.000116666666667 0.007678125 0.32421
102 1 -0.034846875 0.000116666666667 0.008859375 0.305796
103 1 -0.034846875 0.000116666666667 0.010040625 0.294416
104 1 -0.034846875 0.000116666666667 0.011221875 0.28197
105 1 -0.033665625 -0.00261666666667 -0.013584375 0.257671
106 1 -0.033665625 -0.00261666666667 -0.012403125 0.360689
107 1 -0.033665625 -0.00261666666667 -0.011221875 0.288811
108 1 -0.033665625 -0.00261666666667 -0.010040625 0.389304
109 1 -0.033665625 -0.00261666666667 -0.008859375 0.317532
110 1 -0.033665625 -0.00261666666667 -0.007678125 0.413049
111 1 -0.033665625 -0.00261666666667 -0.006496875 0.345626
112 1 -0.033665625 -0.00261666666667 -0.005315625 0.436299
113 1 -0.033665625 -0.00261666666667 -0.004134375 0.370645
114 1 -0.033665625 -0.00261666666667 -0.002953125 0.455676
115 1 -0.033665625 -0.00261666666667 -0.001771875 0.39423
116 1 -0.033665625 -0.00261666666667 -0.000590625 0.473867
117 1 -0.033665625 -0.00261666666667 0.000590625 0.412167
118 1 -0.033665625 -0.00261666666667 0.001771875 0.484302
119 1 -0.033665625 -0.00261666666667 0.002953125 0.419946
120 1 -0.033665625 -0.00261666666667 0.004134375 0.48261
121 1 -0.033665625 -0.00261666666667 0.005315625 0.410735
122 1 -0.033665625 -0.00261666666667 0.006496875 0.466543
123 1 -0.033665625 -0.00261666666667 0.007678125 0.38656
124 1 -0.033665625 -0.00261666666667 0.008859375 0.439178
125 1 -0.033665625 -0.00261666666667 0.010040625 0.350188
126 1 -0.033665625 -0.00261666666667 0.011221875 0.401218
127 1 -0.033665625 -0.00261666666667 0.012403125 0.309474
128 1 -0.033665625 -0.00261666666667 0.013584375 0.361072
129 1 -0.033665625 -0.00125 -0.013584375 0.257671
130 1 -0.033665625 -0.00125 -0.012403125 0.360689
131 1 -0.033665625 -0.00125 -0.011221875 0.288811
132 1 -0.033665625 -0.00125 -0.010040625 0.389304
133 1 -0.033665625 -0.00125 -0.008859375 0.317532
134 1 -0.033665625 -0.00125 -0.007678125 0.413049
135 1 -0.033665625 -0.00125 -0.006496875 0.345626
136 1 -0.033665625 -0.00125 -0.005315625 0.436299
137 1 -0.033665625 -0.00125 -0.004134375 0.370645
138 1 -0.033665625 -0.00125 -0.002953125 0.455676
139 1 -0.033665625 -0.00125 -0.001771875 0.39423
140 1 -0.033665625 -0.00125 -0.000590625 0.473867
141 1 -0.033665625 -0.00125 0.000590625 0.412167
142 1 -0.033665625 -0.00125 0.001771875 0.484302
143 1 -0.033665625 -0.00125 0.002953125 0.419946
144 1 -0.033665625 -0.00125 0.004134375 0.48261
145 1 -0.033665625 -0.00125 0.005315625 0.410735
146 1 -0.033665625 -0.00125 0.006496875 0.466543
147 1 -0.033665625 -0.00125 0.007678125 0.38656
148 1 -0.033665625 -0.00125 0.008859375 0.439178
149 1 -0.033665625 -0.00125 0.010040625 0.350188
150 1 -0.033665625 -0.00125 0.011221875 0.401218
151 1 -0.033665625 -0.00125 0.012403125 0.309474
152 1 -0.033665625 -0.00125 0.013584375 0.361072
153 1 -0.033665625 0.000116666666667 -0.013584375 0.257671
154 1 -0.033665625 0.000116666666667 -0.012403125 0.360689
155 1 -0.033665625 0.000116666666667 -0.011221875 0.288811
156 1 -0.033665625 0.000116666666667 -0.010040625 0.389304
157 1 -0.033665625 0.000116666666667 -0.008859375 0.317532
158 1 -0.033665625 0.000116666666667 -0.007678125 0.413049
159 1 -0.033665625 0.000116666666667 -0.006496875 0.345626
160 1 -0.033665625 0.000116666666667 -0.005315625 0.436299
161 1 -0.033665625 0.000116666666667 -0.004134375 0.370645
162 1 -0.033665625 0.000116666666667 -0.002953125 0.455676
163 1 -0.033665625 0.000116666666667 -0.001771875 0.39423
164 1 -0.033665625 0.000116666666667 -0.000590625 0.473867
165 1 -0.033665625 0.000116666666667 0.000590625 0.412167
166 1 -0.033665625 0.000116666666667 0.001771875 0.484302
167 1 -0.033665625 0.000116666666667 0.002953125 0.419946
168 1 -0.033665625 0.000116666666667 0.004134375 0.48261
169 1 -0.033665625 0.000116666666667 0.005315625 0.410735
170 1 -0.033665625 0.000116666666667 0.006496875 0.466543
171 1 -0.033665625 0.000116666666667 0.007678125 0.38656
172 1 -0.033665625 0.000116666666667 0.008859375 0.439178
173 1 -0.033665625 0.000116666666667 0.010040625 0.350188
174 1 -0.033665625 0.000116666666667 0.011221875 0.401218
175 1 -0.033665625 0.000116666666667 0.012403125 0.309474
176 1 -0.033665625 0.000116666666667 0.013584375 0.361072
177 1 -0.032484375 -0.00261666666667 -0.018309375 0.162823
178 1 -0.032484375 -0.00261666666667 -0.017128125 0.243444
179 1 -0.032484375 -0.00261666666667 -0.015946875 0.198867
180 1 -0.032484375 -0.00261666666667 -0.014765625 0.274213
181 1 -0.032484375 -0.00261666666667 -0.013584375 0.240566
182 1 -0.032484375 -0.00261666666667 -0.012403125 0.305488
183 1 -0.032484375 -0.00261666666667 -0.011221875 0.280708
184 1 -0.032484375 -0.00261666666667 -0.010040625 0.331188
185 1 -0.032484375 -0.00261666666667 -0.008859375 0.316363
186 1 -0.032484375 -0.00261666666667 -0.007678125 0.354162
187 1 -0.032484375 -0.00261666666667 -0.006496875 0.349639
188 1 -0.032484375 -0.00261666666667 -0.005315625 0.375306
189 1 -0.032484375 -0.00261666666667 -0.004134375 0.380149
190 1 -0.032484375 -0.00261666666667 -0.002953125 0.393595
191 1 -0.032484375 -0.00261666666667 -0.001771875 0.408483
192 1 -0.032484375 -0.00261666666667 -0.000590625 0.409215
193 1 -0.032484375 -0.00261666666667 0.000590625 0.432431
194 1 -0.032484375 -0.00261666666667 0.001771875 0.420155
195 1 -0.032484375 -0.00261666666667 0.002953125 0.443791
196 1 -0.032484375 -0.00261666666667 0.004134375 0.413413
197 1 -0.032484375 -0.00261666666667 0.005315625 0.439111
198 1 -0.032484375 -0.00261666666667 0.006496875 0.394488
199 1 -0.032484375 -0.00261666666667 0.007678125 0.414251
200 1 -0.032484375 -0.00261666666667 0.008859375 0.361568
201 1 -0.032484375 -0.00261666666667 0.010040625 0.372651
202 1 -0.032484375 -0.00261666666667 0.011221875 0.324434
203 1 -0.032484375 -0.00261666666667 0.012403125 0.318486
204 1 -0.032484375 -0.00261666666667 0.013584375 0.285339
205 1 -0.032484375 -0.00261666666667 0.014765625 0.264854
206 1 -0.032484375 -0.00261666666667 0.015946875 0.249759
207 1 -0.032484375 -0.00261666666667 0.017128125 0.218347
208 1 -0.032484375 -0.00261666666667 0.018309375 0.222194
209 1 -0.032484375 -0.00125 -0.018309375 0.162823
210 1 -0.032484375 -0.00125 -0.017128125 0.243444
211 1 -0.032484375 -0.00125 -0.015946875 0.198867
212 1 -0.032484375 -0.00125 -0.014765625 0.274213
213 1 -0.032484375 -0.00125 -0.013584375 0.240566
214 1 -0.032484375 -0.00125 -0.012403125 0.305488
215 1 -0.032484375 -0.00125 -0.011221875 0.280708
216 1 -0.032484375 -0.00125 -0.010040625 0.331188
217 1 -0.032484375 -0.00125 -0.008859375 0.316363
218 1 -0.032484375 -0.00125 -0.007678125 0.354162
219 1 -0.032484375 -0.00125 -0.006496875 0.349639
220 1 -0.032484375 -0.00125 -0.005315625 0.375306
221 1 -0.032484375 -0.00125 -0.004134375 0.380149
222 1 -0.032484375 -0.00125 -0.002953125 0.393595
223 1 -0.032484375 -0.00125 -0.001771875 0.408483
224 1 -0.032484375 -0.00125 -0.000590625 0.409215
225 1 -0.032484375 -0.00125 0.000590625 0.432431
226 1 -0.032484375 -0.00125 0.001771875 0.420155
227 1 -0.032484375 -0.00125 0.002953125 0.443791
228 1 -0.032484375 -0.00125 0.004134375 0.413413
229 1 -0.032484375 -0.00125 0.005315625 0.439111
230 1 -0.032484375 -0.00125 0.006496875 0.394488
231 1 -0.032484375 -0.00125 0.007678125 0.414251
232 1 -0.032484375 -0.00125 0.008859375 0.361568
233 1 -0.032484375 -0.00125 0.010040625 0.372651
234 1 -0.032484375 -0.00125 0.011221875 0.324434
235 1 -0.032484375 -0.00125 0.012403125 0.318486
236 1 -0.032484375 -0.00125 0.013584375 0.285339
237 1 -0.032484375 -0.00125 0.014765625 0.264854
238 1 -0.032484375 -0.00125 0.015946875 0.249759
239 1 -0.032484375 -0.00125 0.017128125 0.218347
240 1 -0.032484375 -0.00125 0.018309375 0.222194
241 1 -0.032484375 0.000116666666667 -0.018309375 0.162823
242 1 -0.032484375 0.000116666666667 -0.017128125 0.243444
243 1 -0.032484375 0.000116666666667 -0.015946875 0.198867
244 1 -0.032484375 0.000116666666667 -0.014765625 0.274213
245 1 -0.032484375 0.000116666666667 -0.013584375 0.240566
246 1 -0.032484375 0.000116666666667 -0.012403125 0.305488
247 1 -0.032484375 0.000116666666667 -0.011221875 0.280708
248 1 -0.032484375 0.000116666666667 -0.010040625 0.331188
249 1 -0.032484375 0.000116666666667 -0.008859375 0.316363
250 1 -0.032484375 0.000116666666667 -0.007678125 0.354162
251 1 -0.032484375 0.000116666666667 -0.006496875 0.349639
252 1 -0.032484375 0.000116666666667 -0.005315625 0.375306
253 1 -0.032484375 0.000116666666667 -0.004134375 0.380149
254 1 -0.032484375 0.000116666666667 -0.002953125 0.393595
255 1 -0.032484375 0.000116666666667 -0.001771875 0.408483
256 1 -0.032484375 0.000116666666667 -0.000590625 0.409215
257 1 -0.032484375 0.000116666666667 0.000590625 0.432431
258 1 -0.032484375 0.000116666666667 0.001771875 0.420155
259 1 -0.032484375 0.000116666666667 0.002953125 0.443791
260 1 -0.032484375 0.000116666666667 0.004134375 0.413413
261 1 -0.032484375 0.000116666666667 0.005315625 0.439111
262 1 -0.032484375 0.000116666666667 0.006496875 0.394488
263 1 -0.032484375 0.000116666666667 0.007678125 0.414251
264 1 -0.032484375 0.000116666666667 0.008859375 0.361568
265 1 -0.032484375 0.000116666666667 0.010040625 0.372651
266 1 -0.032484375 0.000116666666667 0.011221875 0.324434
267 1 -0.032484375 0.000116666666667 0.012403125 0.318486
268 1 -0.032484375 0.000116666666667 0.013584375 0.285339
269 1 -0.032484375 0.000116666666667 0.014765625 0.264854
270 1 -0.032484375 0.000116666666667 0.015946875 0.249759
271 1 -0.032484375 0.000116666666667 0.017128125 0.218347
272 1 -0.032484375 0.000116666666667 0.018309375 0.222194
273 1 -0.031303125 -0.00261666666667 -0.019490625 0.299248
274 1 -0.031303125 -0.00261666666667 -0.018309375 0.251036
275 1 -0.031303125 -0.00261666666667 -0.017128125 0.341233
276 1 -0.031303125 -0.00261666666667 -0.015946875 0.300011
277 1 -0.031303125 -0.00261666666667 -0.014765625 0.387828
278 1 -0.031303125 -0.00261666666667 -0.013584375 0.347883
279 1 -0.031303125 -0.00261666666667 -0.012403125 0.428481
280 1 -0.031303125 -0.00261666666667 -0.011221875 0.391876
281 1 -0.031303125 -0.00261666666667 -0.010040625 0.463618
282 1 -0.031303125 -0.00261666666667 -0.008859375 0.427573
283 1 -0.031303125 -0.00261666666667 -0.007678125 0.487916
284 1 -0.031303125 -0.00261666666667 -0.006496875 0.456525
285 1 -0.031303125 -0.00261666666667 -0.005315625 0.510802
286 1 -0.031303125 -0.00261666666667 -0.004134375 0.478359
287 1 -0.031303125 -0.00261666666667 -0.002953125 0.527881
288 1 -0.031303125 -0.00261666666667 -0.001771875 0.497226
289 1 -0.031303125 -0.00261666666667 -0.000590625 0.543496
290 1 -0.031303125 -0.00261666666667 0.000590625 0.510913
291 1 -0.031303125 -0.00261666666667 0.001771875 0.552174
292 1 -0.031303125 -0.00261666666667 0.002953125 0.517058
293 1 -0.031303125 -0.00261666666667 0.004134375 0.548736
294 1 -0.031303125 -0.00261666666667 0.005315625 0.509136
295 1 -0.031303125 -0.00261666666667 0.006496875 0.532746
296 1 -0.031303125 -0.00261666666667 0.007678125 0.488795
297 1 -0.031303125 -0.00261666666667 0.008859375 0.504244
298 1 -0.031303125 -0.00261666666667 0.010040625 0.451519
299 1 -0.031303125 -0.00261666666667 0.011221875 0.464432
300 1 -0.031303125 -0.00261666666667 0.012403125 0.401018
301 1 -0.031303125 -0.00261666666667 0.013584375 0.415629
302 1 -0.031303125 -0.00261666666667 0.014765625 0.343725
303 1 -0.031303125 -0.00261666666667 0.015946875 0.364654
304 1 -0.031303125 -0.00261666666667 0.017128125 0.291985
305 1 -0.031303125 -0.00261666666667 0.018309375 0.321633
306 1 -0.031303125 -0.00261666666667 0.019490625 0.251798
307 1 -0.031303125 -0.00125 -0.019490625 0.299248
308 1 -0.031303125 -0.00125 -0.018309375 0.251036
309 1 -0.031303125 -0.00125 -0.017128125 0.341233
310 1 -0.031303125 -0.00125 -0.015946875 0.300011
311 1 -0.031303125 -0.00125 -0.014765625 0.387828
312 1 -0.031303125 -0.00125 -0.013584375 0.347883
313 1 -0.031303125 -0.00125 -0.012403125 0.428481
314 1 -0.031303125 -0.00125 -0.011221875 0.391876
315 1 -0.031303125 -0.00125 -0.010040625 0.463618
316 1 -0.031303125 -0.00125 -0.008859375 0.427573
317 1 -0.031303125 -0.00125 -0.007678125 0.487916
318 1 -0.031303125 -0.00125 -0.006496875 0.456525
319 1 -0.031303125 -0.00125 -0.005315625 0.510802
320 1 -0.031303125 -0.00125 -0.004134375 0.478359
321 1 -0.031303125 -0.00125 -0.002953125 0.527881
322 1 -0.031303125 -0.00125 -0.001771875 0.497226
323 1 -0.031303125 -0.00125 -0.000590625 0.543496
324 1 -0.031303125 -0.00125 0.000590625 0.510913
325 1 -0.031303125 -0.00125 0.001771875 0.552174
326 1 -0.031303125 -0.00125 0.002953125 0.517058
327 1 -0.031303125 -0.00125 0.004134375 0.548736
328 1 -0.031303125 -0.00125 0.005315625 0.509136
329 1 -0.031303125 -0.00125 0.006496875 0.532746
330 1 -0.031303125 -0.00125 0.007678125 0.488795
331 1 -0.031303125 -0.00125 0.008859375 0.504244
332 1 -0.031303125 -0.00125 0.010040625 0.451519
333 1 -0.031303125 -0.00125 0.011221875 0.464432
334 1 -0.031303125 -0.00125 0.012403125 0.401018
335 1 -0.031303125 -0.00125 0.013584375 0.415629
336 1 -0.031303125 -0.00125 0.014765625 0.343725
337 1 -0.031303125 -0.00125 0.015946875 0.364654
338 1 -0.031303125 -0.00125 0.017128125 0.291985
339 1 -0.031303125 -0.00125 0.018309375 0.321633
340 1 -0.031303125 -0.00125 0.019490625 0.251798
341 1 -0.031303125 0.000116666666667 -0.019490625 0.299248
342 1 -0.031303125 0.000116666666667 -0.018309375 0.251036
343 1 -0.031303125 0.000116666666667 -0.017128125 0.341233
344 1 -0.031303125 0.000116666666667 -0.015946875 0.300011
345 1 -0.031303125 0.000116666666667 -0.014765625 0.387828
346 1 -0.031303125 0.000116666666667 -0.013584375 0.347883
347 1 -0.031303125 0.000116666666667 -0.012403125 0.428481
348 1 -0.031303125 0.000116666666667 -0.011221875 0.391876
349 1 -0.031303125 0.000116666666667 -0.010040625 0.463618
350 1 -0.031303125 0.000116666666667 -0.008859375 0.427573
351 1 -0.031303125 0.000116666666667 -0.007678125 0.487916
352 1 -0.031303125 0.000116666666667 -0.006496875 0.456525
353 1 -0.031303125 0.000116666666667 -0.005315625 0.510802
354 1 -0.031303125 0.000116666666667 -0.004134375 0.478359
355 1 -0.031303125 0.000116666666667 -0.002953125 0.527881
356 1 -0.031303125 0.000116666666667 -0.001771875 0.497226
357 1 -0.031303125 0.000116666666667 -0.000590625 0.543496
358 1 -0.031303125 0.000116666666667 0.000590625 0.510913
359 1 -0.031303125 0.000116666666667 0.001771875 0.552174
360 1 -0.031303125 0.000116666666667 0.002953125 0.517058
361 1 -0.031303125 0.000116666666667 0.004134375 0.548736
362 1 -0.031303125 0.000116666666667 0.005315625 0.509136
363 1 -0.031303125 0.000116666666667 0.006496875 0.532746
364 1 -0.031303125 0.000116666666667 0.007678125 0.488795
365 1 -0.031303125 0.000116666666667 0.008859375 0.504244
366 1 -0.031303125 0.000116666666667 0.010040625 0.451519
367 1 -0.031303125 0.000116666666667 0.011221875 0.464432
368 1 -0.031303125 0.000116666666667 0.012403125 0.401018
369 1 -0.031303125 0.000116666666667 0.013584375 0.415629
370 1 -0.031303125 0.000116666666667 0.014765625 0.343725
371 1 -0.031303125 0.000116666666667 0.015946875 0.364654
372 1 -0.031303125 0.000116666666667 0.017128125 0.291985
373 1 -0.031303125 0.000116666666667 0.018309375 0.321633
374 1 -0.031303125 0.000116666666667 0.019490625 0.251798
375 1 -0.030121875 -0.00261666666667 -0.020671875 0.190738
376 1 -0.030121875 -0.00261666666667 -0.019490625 0.27322
377 1 -0.030121875 -0.00261666666667 -0.018309375 0.23697
378 1 -0.030121875 -0.00261666666667 -0.017128125 0.317038
379 1 -0.030121875 -0.00261666666667 -0.015946875 0.293368
380 1 -0.030121875 -0.00261666666667 -0.014765625 0.363139
381 1 -0.030121875 -0.00261666666667 -0.013584375 0.351575
382 1 -0.030121875 -0.00261666666667 -0.012403125 0.405899
383 1 -0.030121875 -0.00261666666667 -0.011221875 0.404088
384 1 -0.030121875 -0.00261666666667 -0.010040625 0.438565
385 1 -0.030121875 -0.00261666666667 -0.008859375 0.446162
386 1 -0.030121875 -0.00261666666667 -0.007678125 0.462922
387 1 -0.030121875 -0.00261666666667 -0.006496875 0.480207
388 1 -0.030121875 -0.00261666666667 -0.005315625 0.48053
389 1 -0.030121875 -0.00261666666667 -0.004134375 0.509095
390 1 -0.030121875 -0.00261666666667 -0.002953125 0.495729
391 1 -0.030121875 -0.00261666666667 -0.001771875 0.532767
392 1 -0.030121875 -0.00261666666667 -0.000590625 0.508424
393 1 -0.030121875 -0.00261666666667 0.000590625 0.552019
394 1 -0.030121875 -0.00261666666667 0.001771875 0.517372
395 1 -0.030121875 -0.00261666666667 0.002953125 0.560542
396 1 -0.030121875 -0.00261666666667 0.004134375 0.508465
397 1 -0.030121875 -0.00261666666667 0.005315625 0.556347
398 1 -0.030121875 -0.00261666666667 0.006496875 0.489072
399 1 -0.030121875 -0.00261666666667 0.007678125 0.534048
400 1 -0.030121875 -0.00261666666667 0.008859375 0.455506
401 1 -0.030121875 -0.00261666666667 0.010040625 0.49574
402 1 -0.030121875 -0.00261666666667 0.011221875 0.414387
403 1 -0.030121875 -0.00261666666667 0.012403125 0.440614
404 1 -0.030121875 -0.00261666666667 0.013584375 0.363166
405 1 -0.030121875 -0.00261666666667 0.014765625 0.373024
406 1 -0.030121875 -0.00261666666667 0.015946875 0.314596
407 1 -0.030121875 -0.00261666666667 0.017128125 0.305342
408 1 -0.030121875 -0.00261666666667 0.018309375 0.276207
409 1 -0.030121875 -0.00261666666667 0.019490625 0.250589
410 1 -0.030121875 -0.00261666666667 0.020671875 0.246698
411 1 -0.030121875 -0.00125 -0.020671875 0.190738
412 1 -0.030121875 -0.00125 -0.019490625 0.27322
413 1 -0.030121875 -0.00125 -0.018309375 0.23697
414 1 -0.030121875 -0.00125 -0.017128125 0.317038
415 1 -0.030121875 -0.00125 -0.015946875 0.293368
416 1 -0.030121875 -0.00125 -0.014765625 0.363139
417 1 -0.030121875 -0.00125 -0.013584375 0.351575
418 1 -0.030121875 -0.00125 -0.012403125 0.405899
419 1 -0.030121875 -0.00125 -0.011221875 0.404088
420 1 -0.030121875 -0.00125 -0.010040625 0.438565
421 1 -0.030121875 -0.00125 -0.008859375 0.446162
422 1 -0.030121875 -0.00125 -0.007678125 0.462922
423 1 -0.030121875 -0.00125 -0.006496875 0.480207
424 1 -0.030121875 -0.00125 -0.005315625 0.48053
425 1 -0.030121875 -0.00125 -0.004134375 0.509095
426 1 -0.030121875 -0.00125 -0.002953125 0.495729
427 1 -0.030121875 -0.00125 -0.001771875 0.532767
428 1 -0.030121875 -0.00125 -0.000590625 0.508424
429 1 -0.030121875 -0.00125 0.000590625 0.552019
430 1 -0.030121875 -0.00125 0.001771875 0.517372
431 1 -0.030121875 -0.00125 0.002953125 0.560542
432 1 -0.030121875 -0.00125 0.004134375 0.508465
433 1 -0.030121875 -0.00125 0.005315625 0.556347
434 1 -0.030121875 -0.00125 0.006496875 0.489072
435 1 -0.030121875 -0.00125 0.007678125 0.534048
436 1 -0.030121875 -0.00125 0.008859375 0.455506
437 1 -0.030121875 -0.00125 0.010040625 0.49574
438 1 -0.030121875 -0.00125 0.011221875 0.414387
439 1 -0.030121875 -0.00125 0.012403125 0.440614
440 1 -0.030121875 -0.00125 0.013584375 0.363166
441 1 -0.030121875 -0.00125 0.014765625 0.373024
442 1 -0.030121875 -0.00125 0.015946875 0.314596
443 1 -0.030121875 -0.00125 0.017128125 0.305342
444 1 -0.030121875 -0.00125 0.018309375 0.276207
445 1 -0.030121875 -0.00125 0.019490625 0.250589
446 1 -0.030121875 -0.00125 0.020671875 0.246698
447 1 -0.030121875 0.000116666666667 -0.020671875 0.190738
448 1 -0.030121875 0.000116666666667 -0.019490625 0.27322
449 1 -0.030121875 0.000116666666667 -0.018309375 0.23697
450 1 -0.030121875 0.000116666666667 -0.017128125 0.317038
451 1 -0.030121875 0.000116666666667 -0.015946875 0.293368
452 1 -0.030121875 0.000116666666667 -0.014765625 0.363139
453 1 -0.030121875 0.000116666666667 -0.013584375 0.351575
454 1 -0.030121875 0.000116666666667 -0.012403125 0.405899
455 1 -0.030121875 0.000116666666667 -0.011221875 0.404088
456 1 -0.030121875 0.000116666666667 -0.010040625 0.438565
457 1 -0.030121875 0.000116666666667 -0.008859375 0.446162
458 1 -0.030121875 0.000116666666667 -0.007678125 0.462922
459 1 -0.030121875 0.000116666666667 -0.006496875 0.480207
460 1 -0.030121875 0.000116666666667 -0.005315625 0.48053
461 1 -0.030121875 0.000116666666667 -0.004134375 0.509095
462 1 -0.030121875 0.000116666666667 -0.002953125 0.495729
463 1 -0.030121875 0.000116666666667 -0.001771875 0.532767
464 1 -0.030121875 0.000116666666667 -0.000590625 0.508424
465 1 -0.030121875 0.000116666666667 0.000590625 0.552019
466 1 -0.030121875 0.000116666666667 0.001771875 0.517372
467 1 -0.030121875 0.000116666666667 0.002953125 0.560542
468 1 -0.030121875 0.000116666666667 0.004134375 0.508465
469 1 -0.030121875 0.000116666666667 0.005315625 0.556347
470 1 -0.030121875 0.000116666666667 0.006496875 0.489072
471 1 -0.030121875 0.000116666666667 0.007678125 0.534048
472 1 -0.030121875 0.000116666666667 0.008859375 0.455506
473 1 -0.030121875 0.000116666666667 0.010040625 0.49574
474 1 -0.030121875 0.000116666666667 0.011221875 0.414387
475 1 -0.030121875 0.000116666666667 0.012403125 0.440614
476 1 -0.030121875 0.000116666666667 0.013584375 0.363166
477 1 -0.030121875 0.000116666666667 0.014765625 0.373024
478 1 -0.030121875 0.000116666666667 0.015946875 0.314596
479 1 -0.030121875 0.000116666666667 0.017128125 0.305342
480 1 -0.030121875 0.000116666666667 0.018309375 0.276207
481 1 -0.030121875 0.000116666666667 0.019490625 0.250589
482 1 -0.030121875 0.000116666666667 0.020671875 0.246698
483 1 -0.028940625 -0.00261666666667 -0.021853125 0.335366
484 1 -0.028940625 -0.00261666666667 -0.020671875 0.30024
485 1 -0.028940625 -0.00261666666667 -0.019490625 0.386073
486 1 -0.028940625 -0.00261666666667 -0.018309375 0.359894
487 1 -0.028940625 -0.00261666666667 -0.017128125 0.43985
488 1 -0.028940625 -0.00261666666667 -0.015946875 0.421183
489 1 -0.028940625 -0.00261666666667 -0.014765625 0.492464
490 1 -0.028940625 -0.00261666666667 -0.013584375 0.46869
491 1 -0.028940625 -0.00261666666667 -0.012403125 0.530693
492 1 -0.028940625 -0.00261666666667 -0.011221875 0.505513
493 1 -0.028940625 -0.00261666666667 -0.010040625 0.561758
494 1 -0.028940625 -0.00261666666667 -0.008859375 0.53335
495 1 -0.028940625 -0.00261666666667 -0.007678125 0.58394
496 1 -0.028940625 -0.00261666666667 -0.006496875 0.557018
497 1 -0.028940625 -0.00261666666667 -0.005315625 0.603549
498 1 -0.028940625 -0.00261666666667 -0.004134375 0.573192
499 1 -0.028940625 -0.00261666666667 -0.002953125 0.616749
500 1 -0.028940625 -0.00261666666667 -0.001771875 0.587622
501 1 -0.028940625 -0.00261666666667 -0.000590625 0.628684
502 1 -0.028940625 -0.00261666666667 0.000590625 0.597973
503 1 -0.028940625 -0.00261666666667 0.001771875 0.634229
504 1 -0.028940625 -0.00261666666667 0.002953125 0.601368
505 1 -0.028940625 -0.00261666666667 0.004134375 0.628655
506 1 -0.028940625 -0.00261666666667 0.005315625 0.592099
507 1 -0.028940625 -0.00261666666667 0.006496875 0.611609
508 1 -0.028940625 -0.00261666666667 0.007678125 0.571442
509 1 -0.028940625 -0.00261666666667 0.008859375 0.583341
510 1 -0.028940625 -0.00261666666667 0.010040625 0.539726
511 1 -0.028940625 -0.00261666666667 0.011221875 0.544115
512 1 -0.028940625 -0.00261666666667 0.012403125 0.500713
513 1 -0.028940625 -0.00261666666667 0.013584375 0.498049
514 1 -0.028940625 -0.00261666666667 0.014765625 0.449641
515 1 -0.028940625 -0.00261666666667 0.015946875 0.447123
516 1 -0.028940625 -0.00261666666667 0.017128125 0.39394
517 1 -0.028940625 -0.00261666666667 0.018309375 0.397064
518 1 -0.028940625 -0.00261666666667 0.019490625 0.343467
519 1 -0.028940625 -0.00261666666667 0.020671875 0.356955
520 1 -0.028940625 -0.00261666666667 0.021853125 0.301773
521 1 -0.028940625 -0.00125 -0.021853125 0.335366
522 1 -0.028940625 -0.00125 -0.020671875 0.30024
523 1 -0.028940625 -0.00125 -0.019490625 0.386073
524 1 -0.028940625 -0.00125 -0.018309375 0.359894
525 1 -0.028940625 -0.00125 -0.017128125 0.43985
526 1 -0.028940625 -0.00125 -0.015946875 0.421183
527 1 -0.028940625 -0.00125 -0.014765625 0.492464
528 1 -0.028940625 -0.00125 -0.013584375 0.46869
529 1 -0.028940625 -0.00125 -0.012403125 0.530693
530 1 -0.028940625 -0.00125 -0.011221875 0.505513
531 1 -0.028940625 -0.00125 -0.010040625 0.561758
532 1 -0.028940625 -0.00125 -0.008859375 0.53335
533 1 -0.028940625 -0.00125 -0.007678125 0.58394
534 1 -0.028940625 -0.00125 -0.006496875 0.557018
535 1 -0.028940625 -0.00125 -0.005315625 0.603549
536 1 -0.028940625 -0.00125 -0.004134375 0.573192
537 1 -0.028940625 -0.00125 -0.002953125 0.616749