ITEM: TIMESTEP
0
ITEM: NUMBER OF ATOMS
9240
ITEM: BOX BOUNDS ss ss ss
-3.7007399999999996e-02 3.7007399999999996e-02
-2.0002499999999999e-03 2.5000000000000004e-07
-3.7007399999999996e-02 3.7007399999999996e-02
ITEM: ATOMS id type x y z c_1
0 1 -0.037209375 -0.00261666666667 -0.000590625 0.304013
1 1 -0.037209375 -0.00125 -0.000590625 0.304013
2 1 -0.037209375 0.000116666666667 -0.000590625 0.304013
3 1 -0.036028125 -0.00261666666667 -0.007678125 0.225495
4 1 -0.036028125 -0.00261666666667 -0.006496875 0.115457
5 1 -0.036028125 -0.00261666666667 -0.005315625 0.238772
6 1 -0.036028125 -0.00261666666667 -0.004134375 0.127438
7 1 -0.036028125 -0.00261666666667 -0.002953125 0.24953
8 1 -0.036028125 -0.00261666666667 -0.001771875 0.139535
9 1 -0.036028125 -0.00261666666667 -0.000590625 0.262036
10 1 -0.036028125 -0.00261666666667 0.000590625 0.150449
11 1 -0.036028125 -0.00261666666667 0.001771875 0.271649
12 1 -0.036028125 -0.00261666666667 0.002953125 0.155265
13 1 -0.036028125 -0.00261666666667 0.004134375 0.27071
14 1 -0.036028125 -0.00261666666667 0.005315625 0.148064
15 1 -0.036028125 -0.00261666666667 0.006496875 0.257884
16 1 -0.036028125 -0.00261666666667 0.007678125 0.131261
17 1 -0.036028125 -0.00125 -0.007678125 0.225495
18 1 -0.036028125 -0.00125 -0.006496875 0.115457
19 1 -0.036028125 -0.00125 -0.005315625 0.238772
20 1 -0.036028125 -0.00125 -0.004134375 0.127438
21 1 -0.036028125 -0.00125 -0.002953125 0.24953
22 1 -0.036028125 -0.00125 -0.001771875 0.139535
23 1 -0.036028125 -0.00125 -0.000590625 0.262036
24 1 -0.036028125 -0.00125 0.000590625 0.150449
25 1 -0.036028125 -0.00125 0.001771875 0.271649
26 1 -0.036028125 -0.00125 0.002953125 0.155265
27 1 -0.036028125 -0.00125 0.004134375 0.27071
28 1 -0.036028125 -0.00125 0.005315625 0.148064
29 1 -0.036028125 -0.00125 0.006496875 0.257884
30 1 -0.036028125 -0.00125 0.007678125 0.131261
31 1 -0.036028125 0.000116666666667 -0.007678125 0.225495
32 1 -0.036028125 0.000116666666667 -0.006496875 0.115457
33 1 -0.036028125 0.000116666666667 -0.005315625 0.238772
34 1 -0.036028125 0.000116666666667 -0.004134375 0.127438
35 1 -0.036028125 0.000116666666667 -0.002953125 0.24953
36 1 -0.036028125 0.000116666666667 -0.001771875 0.139535
37 1 -0.036028125 0.000116666666667 -0.000590625 0.262036
38 1 -0.036028125 0.000116666666667 0.000590625 0.150449
39 1 -0.036028125 0.000116666666667 0.001771875 0.271649
40 1 -0.036028125 0.000116666666667 0.002953125 0.155265
41 1 -0.036028125 0.000116666666667 0.004134375 0.27071
42 1 -0.036028125 0.000116666666667 0.005315625 0.148064
43 1 -0.036028125 0.000116666666667 0.006496875 0.257884
44 1 -0.036028125 0.000116666666667 0.007678125 0.131261
45 1 -0.034846875 -0.00261666666667 -0.011221875 0.0949567
46 1 -0.034846875 -0.00261666666667 -0.010040625 0.169505
47 1 -0.034846875 -0.00261666666667 -0.008859375 0.115792
48 1 -0.034846875 -0.00261666666667 -0.007678125 0.186972
49 1 -0.034846875 -0.00261666666667 -0.006496875 0.132022
50 1 -0.034846875 -0.00261666666667 -0.005315625 0.199076
51 1 -0.034846875 -0.00261666666667 -0.004134375 0.145932
52 1 -0.034846875 -0.00261666666667 -0.002953125 0.208994
53 1 -0.034846875 -0.00261666666667 -0.001771875 0.159968
54 1 -0.034846875 -0.00261666666667 -0.000590625 0.220353
55 1 -0.034846875 -0.00261666666667 0.000590625 0.173673
56 1 -0.034846875 -0.00261666666667 0.001771875 0.228956
57 1 -0.034846875 -0.00261666666667 0.002953125 0.181533
58 1 -0.034846875 -0.00261666666667 0.004134375 0.225307
59 1 -0.034846875 -0.00261666666667 0.005315625 0.179282
60 1 -0.034846875 -0.00261666666667 0.006496875 0.211652
61 1 -0.034846875 -0.00261666666667 0.007678125 0.159879
62 1 -0.034846875 -0.00261666666667 0.008859375 0.181891
63 1 -0.034846875 -0.00261666666667 0.010040625 0.129982
64 1 -0.034846875 -0.00261666666667 0.011221875 0.149121
65 1 -0.034846875 -0.00125 -0.011221875 0.0949567
66 1 -0.034846875 -0.00125 -0.010040625 0.169505
67 1 -0.034846875 -0.00125 -0.008859375 0.115792
68 1 -0.034846875 -0.00125 -0.007678125 0.186972
69 1 -0.034846875 -0.00125 -0.006496875 0.132022
70 1 -0.034846875 -0.00125 -0.005315625 0.199076
71 1 -0.034846875 -0.00125 -0.004134375 0.145932
72 1 -0.034846875 -0.00125 -0.002953125 0.208994
73 1 -0.034846875 -0.00125 -0.001771875 0.159968
74 1 -0.034846875 -0.00125 -0.000590625 0.220353
75 1 -0.034846875 -0.00125 0.000590625 0.173673
76 1 -0.034846875 -0.00125 0.001771875 0.228956
77 1 -0.034846875 -0.00125 0.002953125 0.181533
78 1 -0.034846875 -0.00125 0.004134375 0.225307
79 1 -0.034846875 -0.00125 0.005315625 0.179282
80 1 -0.034846875 -0.00125 0.006496875 0.211652
81 1 -0.034846875 -0.00125 0.007678125 0.159879
82 1 -0.034846875 -0.00125 0.008859375 0.181891
83 1 -0.034846875 -0.00125 0.010040625 0.129982
84 1 -0.034846875 -0.00125 0.011221875 0.149121
85 1 -0.034846875 0.000116666666667 -0.011221875 0.0949567
86 1 -0.034846875 0.000116666666667 -0.010040625 0.169505
87 1 -0.034846875 0.000116666666667 -0.008859375 0.115792
88 1 -0.034846875 0.000116666666667 -0.007678125 0.186972
89 1 -0.034846875 0.000116666666667 -0.006496875 0.132022
90 1 -0.034846875 0.000116666666667 -0.005315625 0.199076
91 1 -0.034846875 0.000116666666667 -0.004134375 0.145932
92 1 -0.034846875 0.000116666666667 -0.002953125 0.208994
93 1 -0.034846875 0.000116666666667 -0.001771875 0.159968
94 1 -0.034846875 0.000116666666667 -0.000590625 0.220353
95 1 -0.034846875 0.000116666666667 0.000590625 0.173673
96 1 -0.034846875 0.000116666666667 0.001771875 0.228956
97 1 -0.034846875 0.000116666666667 0.002953125 0.181533
98 1 -0.034846875 0.000116666666667 0.004134375 0.225307
99 1 -0.034846875 0.000116666666667 0.005315625 0.179282
100 1 -0.034846875 0.000116666666667 0.006496875 0.211652
101 1 -0.034846875 0.000116666666667 0.007678125 0.159879
102 1 -0.034846875 0.000116666666667 0.008859375 0.181891
103 1 -0.034846875 0.000116666666667 0.010040625 0.129982
104 1 -0.034846875 0.000116666666667 0.011221875 0.149121
105 1 -0.033665625 -0.00261666666667 -0.013584375 0.162486
106 1 -0.033665625 -0.00261666666667 -0.012403125 0.299709
107 1 -0.033665625 -0.00261666666667 -0.011221875 0.217423
108 1 -0.033665625 -0.00261666666667 -0.010040625 0.339146
109 1 -0.033665625 -0.00261666666667 -0.008859375 0.261498
110 1 -0.033665625 -0.00261666666667 -0.007678125 0.364812
111 1 -0.033665625 -0.00261666666667 -0.006496875 0.294237
112 1 -0.033665625 -0.00261666666667 -0.005315625 0.38261
113 1 -0.033665625 -0.00261666666667 -0.004134375 0.318998
114 1 -0.033665625 -0.00261666666667 -0.002953125 0.397792
115 1 -0.033665625 -0.00261666666667 -0.001771875 0.343495
116 1 -0.033665625 -0.00261666666667 -0.000590625 0.416391
117 1 -0.033665625 -0.00261666666667 0.000590625 0.365417
118 1 -0.033665625 -0.00261666666667 0.001771875 0.430389
119 1 -0.033665625 -0.00261666666667 0.002953125 0.377044
120 1 -0.033665625 -0.00261666666667 0.004134375 0.431171
121 1 -0.033665625 -0.00261666666667 0.005315625 0.366745
122 1 -0.033665625 -0.00261666666667 0.006496875 0.414363
123 1 -0.033665625 -0.00261666666667 0.007678125 0.33291
124 1 -0.033665625 -0.00261666666667 0.008859375 0.376328
125 1 -0.033665625 -0.00261666666667 0.010040625 0.275298
126 1 -0.033665625 -0.00261666666667 0.011221875 0.317963
127 1 -0.033665625 -0.00261666666667 0.012403125 0.203379
128 1 -0.033665625 -0.00261666666667 0.013584375 0.245121
129 1 -0.033665625 -0.00125 -0.013584375 0.162486
130 1 -0.033665625 -0.00125 -0.012403125 0.299709
131 1 -0.033665625 -0.00125 -0.011221875 0.217423
132 1 -0.033665625 -0.00125 -0.010040625 0.339146
133 1 -0.033665625 -0.00125 -0.008859375 0.261498
134 1 -0.033665625 -0.00125 -0.007678125 0.364812
135 1 -0.033665625 -0.00125 -0.006496875 0.294237
136 1 -0.033665625 -0.00125 -0.005315625 0.38261
137 1 -0.033665625 -0.00125 -0.004134375 0.318998
138 1 -0.033665625 -0.00125 -0.002953125 0.397792
139 1 -0.033665625 -0.00125 -0.001771875 0.343495
140 1 -0.033665625 -0.00125 -0.000590625 0.416391
141 1 -0.033665625 -0.00125 0.000590625 0.365417
142 1 -0.033665625 -0.00125 0.001771875 0.430389
143 1 -0.033665625 -0.00125 0.002953125 0.377044
144 1 -0.033665625 -0.00125 0.004134375 0.431171
145 1 -0.033665625 -0.00125 0.005315625 0.366745
146 1 -0.033665625 -0.00125 0.006496875 0.414363
147 1 -0.033665625 -0.00125 0.007678125 0.33291
148 1 -0.033665625 -0.00125 0.008859375 0.376328
149 1 -0.033665625 -0.00125 0.010040625 0.275298
150 1 -0.033665625 -0.00125 0.011221875 0.317963
151 1 -0.033665625 -0.00125 0.012403125 0.203379
152 1 -0.033665625 -0.00125 0.013584375 0.245121
153 1 -0.033665625 0.000116666666667 -0.013584375 0.162486
154 1 -0.033665625 0.000116666666667 -0.012403125 0.299709
155 1 -0.033665625 0.000116666666667 -0.011221875 0.217423
156 1 -0.033665625 0.000116666666667 -0.010040625 0.339146
157 1 -0.033665625 0.000116666666667 -0.008859375 0.261498
158 1 -0.033665625 0.000116666666667 -0.007678125 0.364812
159 1 -0.033665625 0.000116666666667 -0.006496875 0.294237
160 1 -0.033665625 0.000116666666667 -0.005315625 0.38261
161 1 -0.033665625 0.000116666666667 -0.004134375 0.318998
162 1 -0.033665625 0.000116666666667 -0.002953125 0.397792
163 1 -0.033665625 0.000116666666667 -0.001771875 0.343495
164 1 -0.033665625 0.000116666666667 -0.000590625 0.416391
165 1 -0.033665625 0.000116666666667 0.000590625 0.365417
166 1 -0.033665625 0.000116666666667 0.001771875 0.430389
167 1 -0.033665625 0.000116666666667 0.002953125 0.377044
168 1 -0.033665625 0.000116666666667 0.004134375 0.431171
169 1 -0.033665625 0.000116666666667 0.005315625 0.366745
170 1 -0.033665625 0.000116666666667 0.006496875 0.414363
171 1 -0.033665625 0.000116666666667 0.007678125 0.33291
172 1 -0.033665625 0.000116666666667 0.008859375 0.376328
173 1 -0.033665625 0.000116666666667 0.010040625 0.275298
174 1 -0.033665625 0.000116666666667 0.011221875 0.317963
175 1 -0.033665625 0.000116666666667 0.012403125 0.203379
176 1 -0.033665625 0.000116666666667 0.013584375 0.245121
177 1 -0.032484375 -0.00261666666667 -0.018309375 0.110469
178 1 -0.032484375 -0.00261666666667 -0.017128125 0.17797
179 1 -0.032484375 -0.00261666666667 -0.015946875 0.189274
180 1 -0.032484375 -0.00261666666667 -0.014765625 0.24548
181 1 -0.032484375 -0.00261666666667 -0.013584375 0.285785
182 1 -0.032484375 -0.00261666666667 -0.012403125 0.311239
183 1 -0.032484375 -0.00261666666667 -0.011221875 0.363871
184 1 -0.032484375 -0.00261666666667 -0.010040625 0.345766
185 1 -0.032484375 -0.00261666666667 -0.008859375 0.412509
186 1 -0.032484375 -0.00261666666667 -0.007678125 0.367991
187 1 -0.032484375 -0.00261666666667 -0.006496875 0.438782
188 1 -0.032484375 -0.00261666666667 -0.005315625 0.377652
189 1 -0.032484375 -0.00261666666667 -0.004134375 0.456137
190 1 -0.032484375 -0.00261666666667 -0.002953125 0.385811
191 1 -0.032484375 -0.00261666666667 -0.001771875 0.471481
192 1 -0.032484375 -0.00261666666667 -0.000590625 0.399278
193 1 -0.032484375 -0.00261666666667 0.000590625 0.489215
194 1 -0.032484375 -0.00261666666667 0.001771875 0.412702
195 1 -0.032484375 -0.00261666666667 0.002953125 0.507643
196 1 -0.032484375 -0.00261666666667 0.004134375 0.413409
197 1 -0.032484375 -0.00261666666667 0.005315625 0.519879
198 1 -0.032484375 -0.00261666666667 0.006496875 0.402936
199 1 -0.032484375 -0.00261666666667 0.007678125 0.500598
200 1 -0.032484375 -0.00261666666667 0.008859375 0.365814
201 1 -0.032484375 -0.00261666666667 0.010040625 0.443902
202 1 -0.032484375 -0.00261666666667 0.011221875 0.30484
203 1 -0.032484375 -0.00261666666667 0.012403125 0.350498
204 1 -0.032484375 -0.00261666666667 0.013584375 0.221705
205 1 -0.032484375 -0.00261666666667 0.014765625 0.235427
206 1 -0.032484375 -0.00261666666667 0.015946875 0.150441
207 1 -0.032484375 -0.00261666666667 0.017128125 0.139316
208 1 -0.032484375 -0.00261666666667 0.018309375 0.100539
209 1 -0.032484375 -0.00125 -0.018309375 0.110469
210 1 -0.032484375 -0.00125 -0.017128125 0.17797
211 1 -0.032484375 -0.00125 -0.015946875 0.189274
212 1 -0.032484375 -0.00125 -0.014765625 0.24548
213 1 -0.032484375 -0.00125 -0.013584375 0.285785
214 1 -0.032484375 -0.00125 -0.012403125 0.311239
215 1 -0.032484375 -0.00125 -0.011221875 0.363871
216 1 -0.032484375 -0.00125 -0.010040625 0.345766
217 1 -0.032484375 -0.00125 -0.008859375 0.412509
218 1 -0.032484375 -0.00125 -0.007678125 0.367991
219 1 -0.032484375 -0.00125 -0.006496875 0.438782
220 1 -0.032484375 -0.00125 -0.005315625 0.377652
221 1 -0.032484375 -0.00125 -0.004134375 0.456137
222 1 -0.032484375 -0.00125 -0.002953125 0.385811
223 1 -0.032484375 -0.00125 -0.001771875 0.471481
224 1 -0.032484375 -0.00125 -0.000590625 0.399278
225 1 -0.032484375 -0.00125 0.000590625 0.489215
226 1 -0.032484375 -0.00125 0.001771875 0.412702
227 1 -0.032484375 -0.00125 0.002953125 0.507643
228 1 -0.032484375 -0.00125 0.004134375 0.413409
229 1 -0.032484375 -0.00125 0.005315625 0.519879
230 1 -0.032484375 -0.00125 0.006496875 0.402936
231 1 -0.032484375 -0.00125 0.007678125 0.500598
232 1 -0.032484375 -0.00125 0.008859375 0.365814
233 1 -0.032484375 -0.00125 0.010040625 0.443902
234 1 -0.032484375 -0.00125 0.011221875 0.30484
235 1 -0.032484375 -0.00125 0.012403125 0.350498
236 1 -0.032484375 -0.00125 0.013584375 0.221705
237 1 -0.032484375 -0.00125 0.014765625 0.235427
238 1 -0.032484375 -0.00125 0.015946875 0.150441
239 1 -0.032484375 -0.00125 0.017128125 0.139316
240 1 -0.032484375 -0.00125 0.018309375 0.100539
241 1 -0.032484375 0.000116666666667 -0.018309375 0.110469
242 1 -0.032484375 0.000116666666667 -0.017128125 0.17797
243 1 -0.032484375 0.000116666666667 -0.015946875 0.189274
244 1 -0.032484375 0.000116666666667 -0.014765625 0.24548
245 1 -0.032484375 0.000116666666667 -0.013584375 0.285785
246 1 -0.032484375 0.000116666666667 -0.012403125 0.311239
247 1 -0.032484375 0.000116666666667 -0.011221875 0.363871
248 1 -0.032484375 0.000116666666667 -0.010040625 0.345766
249 1 -0.032484375 0.000116666666667 -0.008859375 0.412509
250 1 -0.032484375 0.000116666666667 -0.007678125 0.367991
251 1 -0.032484375 0.000116666666667 -0.006496875 0.438782
252 1 -0.032484375 0.000116666666667 -0.005315625 0.377652
253 1 -0.032484375 0.000116666666667 -0.004134375 0.456137
254 1 -0.032484375 0.000116666666667 -0.002953125 0.385811
255 1 -0.032484375 0.000116666666667 -0.001771875 0.471481
256 1 -0.032484375 0.000116666666667 -0.000590625 0.399278
257 1 -0.032484375 0.000116666666667 0.000590625 0.489215
258 1 -0.032484375 0.000116666666667 0.001771875 0.412702
259 1 -0.032484375 0.000116666666667 0.002953125 0.507643
260 1 -0.032484375 0.000116666666667 0.004134375 0.413409
261 1 -0.032484375 0.000116666666667 0.005315625 0.519879
262 1 -0.032484375 0.000116666666667 0.006496875 0.402936
263 1 -0.032484375 0.000116666666667 0.007678125 0.500598
264 1 -0.032484375 0.000116666666667 0.008859375 0.365814
265 1 -0.032484375 0.000116666666667 0.010040625 0.443902
266 1 -0.032484375 0.000116666666667 0.011221875 0.30484
267 1 -0.032484375 0.000116666666667 0.012403125 0.350498
268 1 -0.032484375 0.000116666666667 0.013584375 0.221705
269 1 -0.032484375 0.000116666666667 0.014765625 0.235427
270 1 -0.032484375 0.000116666666667 0.015946875 0.150441
271 1 -0.032484375 0.000116666666667 0.017128125 0.139316
272 1 -0.032484375 0.000116666666667 0.018309375 0.100539
273 1 -0.031303125 -0.00261666666667 -0.019490625 0.254925
274 1 -0.031303125 -0.00261666666667 -0.018309375 0.221889
275 1 -0.031303125 -0.00261666666667 -0.017128125 0.359794
276 1 -0.031303125 -0.00261666666667 -0.015946875 0.358004
277 1 -0.031303125 -0.00261666666667 -0.014765625 0.450103
278 1 -0.031303125 -0.00261666666667 -0.013584375 0.476086
279 1 -0.031303125 -0.00261666666667 -0.012403125 0.516838
280 1 -0.031303125 -0.00261666666667 -0.011221875 0.55599
281 1 -0.031303125 -0.00261666666667 -0.010040625 0.553955
282 1 -0.031303125 -0.00261666666667 -0.008859375 0.595697
283 1 -0.031303125 -0.00261666666667 -0.007678125 0.568161
284 1 -0.031303125 -0.00261666666667 -0.006496875 0.610421
285 1 -0.031303125 -0.00261666666667 -0.005315625 0.572179
286 1 -0.031303125 -0.00261666666667 -0.004134375 0.612894
287 1 -0.031303125 -0.00261666666667 -0.002953125 0.574608
288 1 -0.031303125 -0.00261666666667 -0.001771875 0.61699
289 1 -0.031303125 -0.00261666666667 -0.000590625 0.583874
290 1 -0.031303125 -0.00261666666667 0.000590625 0.627624
291 1 -0.031303125 -0.00261666666667 0.001771875 0.595611
292 1 -0.031303125 -0.00261666666667 0.002953125 0.643899
293 1 -0.031303125 -0.00261666666667 0.004134375 0.604739
294 1 -0.031303125 -0.00261666666667 0.005315625 0.653901
295 1 -0.031303125 -0.00261666666667 0.006496875 0.603846
296 1 -0.031303125 -0.00261666666667 0.007678125 0.647051
297 1 -0.031303125 -0.00261666666667 0.008859375 0.583822
298 1 -0.031303125 -0.00261666666667 0.010040625 0.608772
299 1 -0.031303125 -0.00261666666667 0.011221875 0.526972
300 1 -0.031303125 -0.00261666666667 0.012403125 0.522308
301 1 -0.031303125 -0.00261666666667 0.013584375 0.440736
302 1 -0.031303125 -0.00261666666667 0.014765625 0.391195
303 1 -0.031303125 -0.00261666666667 0.015946875 0.334156
304 1 -0.031303125 -0.00261666666667 0.017128125 0.255049
305 1 -0.031303125 -0.00261666666667 0.018309375 0.234396
306 1 -0.031303125 -0.00261666666667 0.019490625 0.155712
307 1 -0.031303125 -0.00125 -0.019490625 0.254925
308 1 -0.031303125 -0.00125 -0.018309375 0.221889
309 1 -0.031303125 -0.00125 -0.017128125 0.359794
310 1 -0.031303125 -0.00125 -0.015946875 0.358004
311 1 -0.031303125 -0.00125 -0.014765625 0.450103
312 1 -0.031303125 -0.00125 -0.013584375 0.476086
313 1 -0.031303125 -0.00125 -0.012403125 0.516838
314 1 -0.031303125 -0.00125 -0.011221875 0.55599
315 1 -0.031303125 -0.00125 -0.010040625 0.553955
316 1 -0.031303125 -0.00125 -0.008859375 0.595697
317 1 -0.031303125 -0.00125 -0.007678125 0.568161
318 1 -0.031303125 -0.00125 -0.006496875 0.610421
319 1 -0.031303125 -0.00125 -0.005315625 0.572179
320 1 -0.031303125 -0.00125 -0.004134375 0.612894
321 1 -0.031303125 -0.00125 -0.002953125 0.574608
322 1 -0.031303125 -0.00125 -0.001771875 0.61699
323 1 -0.031303125 -0.00125 -0.000590625 0.583874
324 1 -0.031303125 -0.00125 0.000590625 0.627624
325 1 -0.031303125 -0.00125 0.001771875 0.595611
326 1 -0.031303125 -0.00125 0.002953125 0.643899
327 1 -0.031303125 -0.00125 0.004134375 0.604739
328 1 -0.031303125 -0.00125 0.005315625 0.653901
329 1 -0.031303125 -0.00125 0.006496875 0.603846
330 1 -0.031303125 -0.00125 0.007678125 0.647051
331 1 -0.031303125 -0.00125 0.008859375 0.583822
332 1 -0.031303125 -0.00125 0.010040625 0.608772
333 1 -0.031303125 -0.00125 0.011221875 0.526972
334 1 -0.031303125 -0.00125 0.012403125 0.522308
335 1 -0.031303125 -0.00125 0.013584375 0.440736
336 1 -0.031303125 -0.00125 0.014765625 0.391195
337 1 -0.031303125 -0.00125 0.015946875 0.334156
338 1 -0.031303125 -0.00125 0.017128125 0.255049
339 1 -0.031303125 -0.00125 0.018309375 0.234396
340 1 -0.031303125 -0.00125 0.019490625 0.155712
341 1 -0.031303125 0.000116666666667 -0.019490625 0.254925
342 1 -0.031303125 0.000116666666667 -0.018309375 0.221889
343 1 -0.031303125 0.000116666666667 -0.017128125 0.359794
344 1 -0.031303125 0.000116666666667 -0.015946875 0.358004
345 1 -0.031303125 0.000116666666667 -0.014765625 0.450103
346 1 -0.031303125 0.000116666666667 -0.013584375 0.476086
347 1 -0.031303125 0.000116666666667 -0.012403125 0.516838
348 1 -0.031303125 0.000116666666667 -0.011221875 0.55599
349 1 -0.031303125 0.000116666666667 -0.010040625 0.553955
350 1 -0.031303125 0.000116666666667 -0.008859375 0.595697
351 1 -0.031303125 0.000116666666667 -0.007678125 0.568161
352 1 -0.031303125 0.000116666666667 -0.006496875 0.610421
353 1 -0.031303125 0.000116666666667 -0.005315625 0.572179
354 1 -0.031303125 0.000116666666667 -0.004134375 0.612894
355 1 -0.031303125 0.000116666666667 -0.002953125 0.574608
356 1 -0.031303125 0.000116666666667 -0.001771875 0.61699
357 1 -0.031303125 0.000116666666667 -0.000590625 0.583874
358 1 -0.031303125 0.000116666666667 0.000590625 0.627624
359 1 -0.031303125 0.000116666666667 0.001771875 0.595611
360 1 -0.031303125 0.000116666666667 0.002953125 0.643899
361 1 -0.031303125 0.000116666666667 0.004134375 0.604739
362 1 -0.031303125 0.000116666666667 0.005315625 0.653901
363 1 -0.031303125 0.000116666666667 0.006496875 0.603846
364 1 -0.031303125 0.000116666666667 0.007678125 0.647051
365 1 -0.031303125 0.000116666666667 0.008859375 0.583822
366 1 -0.031303125 0.000116666666667 0.010040625 0.608772
367 1 -0.031303125 0.000116666666667 0.011221875 0.526972
368 1 -0.031303125 0.000116666666667 0.012403125 0.522308
369 1 -0.031303125 0.000116666666667 0.013584375 0.440736
370 1 -0.031303125 0.000116666666667 0.014765625 0.391195
371 1 -0.031303125 0.000116666666667 0.015946875 0.334156
372 1 -0.031303125 0.000116666666667 0.017128125 0.255049
373 1 -0.031303125 0.000116666666667 0.018309375 0.234396
374 1 -0.031303125 0.000116666666667 0.019490625 0.155712
375 1 -0.030121875 -0.00261666666667 -0.020671875 0.174247
376 1 -0.030121875 -0.00261666666667 -0.019490625 0.257383
377 1 -0.030121875 -0.00261666666667 -0.018309375 0.310869
378 1 -0.030121875 -0.00261666666667 -0.017128125 0.381858
379 1 -0.030121875 -0.00261666666667 -0.015946875 0.447905
380 1 -0.030121875 -0.00261666666667 -0.014765625 0.463954
381 1 -0.030121875 -0.00261666666667 -0.013584375 0.544849
382 1 -0.030121875 -0.00261666666667 -0.012403125 0.513284
383 1 -0.030121875 -0.00261666666667 -0.011221875 0.59263
384 1 -0.030121875 -0.00261666666667 -0.010040625 0.531823
385 1 -0.030121875 -0.00261666666667 -0.008859375 0.606217
386 1 -0.030121875 -0.00261666666667 -0.007678125 0.539141
387 1 -0.030121875 -0.00261666666667 -0.006496875 0.598686
388 1 -0.030121875 -0.00261666666667 -0.005315625 0.538128
389 1 -0.030121875 -0.00261666666667 -0.004134375 0.5879
390 1 -0.030121875 -0.00261666666667 -0.002953125 0.536837
391 1 -0.030121875 -0.00261666666667 -0.001771875 0.585192
392 1 -0.030121875 -0.00261666666667 -0.000590625 0.544148
393 1 -0.030121875 -0.00261666666667 0.000590625 0.59609
394 1 -0.030121875 -0.00261666666667 0.001771875 0.559106
395 1 -0.030121875 -0.00261666666667 0.002953125 0.61866
396 1 -0.030121875 -0.00261666666667 0.004134375 0.568461
397 1 -0.030121875 -0.00261666666667 0.005315625 0.648149
398 1 -0.030121875 -0.00261666666667 0.006496875 0.572468
399 1 -0.030121875 -0.00261666666667 0.007678125 0.662899
400 1 -0.030121875 -0.00261666666667 0.008859375 0.551028
401 1 -0.030121875 -0.00261666666667 0.010040625 0.655569
402 1 -0.030121875 -0.00261666666667 0.011221875 0.50555
403 1 -0.030121875 -0.00261666666667 0.012403125 0.608811
404 1 -0.030121875 -0.00261666666667 0.013584375 0.425894
405 1 -0.030121875 -0.00261666666667 0.014765625 0.49755
406 1 -0.030121875 -0.00261666666667 0.015946875 0.315506
407 1 -0.030121875 -0.00261666666667 0.017128125 0.344245
408 1 -0.030121875 -0.00261666666667 0.018309375 0.210265
409 1 -0.030121875 -0.00261666666667 0.019490625 0.21108
410 1 -0.030121875 -0.00261666666667 0.020671875 0.143562
411 1 -0.030121875 -0.00125 -0.020671875 0.174247
412 1 -0.030121875 -0.00125 -0.019490625 0.257383
413 1 -0.030121875 -0.00125 -0.018309375 0.310869
414 1 -0.030121875 -0.00125 -0.017128125 0.381858
415 1 -0.030121875 -0.00125 -0.015946875 0.447905
416 1 -0.030121875 -0.00125 -0.014765625 0.463954
417 1 -0.030121875 -0.00125 -0.013584375 0.544849
418 1 -0.030121875 -0.00125 -0.012403125 0.513284
419 1 -0.030121875 -0.00125 -0.011221875 0.59263
420 1 -0.030121875 -0.00125 -0.010040625 0.531823
421 1 -0.030121875 -0.00125 -0.008859375 0.606217
422 1 -0.030121875 -0.00125 -0.007678125 0.539141
423 1 -0.030121875 -0.00125 -0.006496875 0.598686
424 1 -0.030121875 -0.00125 -0.005315625 0.538128
425 1 -0.030121875 -0.00125 -0.004134375 0.5879
426 1 -0.030121875 -0.00125 -0.002953125 0.536837
427 1 -0.030121875 -0.00125 -0.001771875 0.585192
428 1 -0.030121875 -0.00125 -0.000590625 0.544148
429 1 -0.030121875 -0.00125 0.000590625 0.59609
430 1 -0.030121875 -0.00125 0.001771875 0.559106
431 1 -0.030121875 -0.00125 0.002953125 0.61866
432 1 -0.030121875 -0.00125 0.004134375 0.568461
433 1 -0.030121875 -0.00125 0.005315625 0.648149
434 1 -0.030121875 -0.00125 0.006496875 0.572468
435 1 -0.030121875 -0.00125 0.007678125 0.662899
436 1 -0.030121875 -0.00125 0.008859375 0.551028
437 1 -0.030121875 -0.00125 0.010040625 0.655569
438 1 -0.030121875 -0.00125 0.011221875 0.50555
439 1 -0.030121875 -0.00125 0.012403125 0.608811
440 1 -0.030121875 -0.00125 0.013584375 0.425894
441 1 -0.030121875 -0.00125 0.014765625 0.49755
442 1 -0.030121875 -0.00125 0.015946875 0.315506
443 1 -0.030121875 -0.00125 0.017128125 0.344245
444 1 -0.030121875 -0.00125 0.018309375 0.210265
445 1 -0.030121875 -0.00125 0.019490625 0.21108
446 1 -0.030121875 -0.00125 0.020671875 0.143562
447 1 -0.030121875 0.000116666666667 -0.020671875 0.174247
448 1 -0.030121875 0.000116666666667 -0.019490625 0.257383
449 1 -0.030121875 0.000116666666667 -0.018309375 0.310869
450 1 -0.030121875 0.000116666666667 -0.017128125 0.381858
451 1 -0.030121875 0.000116666666667 -0.015946875 0.447905
452 1 -0.030121875 0.000116666666667 -0.014765625 0.463954
453 1 -0.030121875 0.000116666666667 -0.013584375 0.544849
454 1 -0.030121875 0.000116666666667 -0.012403125 0.513284
455 1 -0.030121875 0.000116666666667 -0.011221875 0.59263
456 1 -0.030121875 0.000116666666667 -0.010040625 0.531823
457 1 -0.030121875 0.000116666666667 -0.008859375 0.606217
458 1 -0.030121875 0.000116666666667 -0.007678125 0.539141
459 1 -0.030121875 0.000116666666667 -0.006496875 0.598686
460 1 -0.030121875 0.000116666666667 -0.005315625 0.538128
461 1 -0.030121875 0.000116666666667 -0.004134375 0.5879
462 1 -0.030121875 0.000116666666667 -0.002953125 0.536837
463 1 -0.030121875 0.000116666666667 -0.001771875 0.585192
464 1 -0.030121875 0.000116666666667 -0.000590625 0.544148
465 1 -0.030121875 0.000116666666667 0.000590625 0.59609
466 1 -0.030121875 0.000116666666667 0.001771875 0.559106
467 1 -0.030121875 0.000116666666667 0.002953125 0.61866
468 1 -0.030121875 0.000116666666667 0.004134375 0.568461
469 1 -0.030121875 0.000116666666667 0.005315625 0.648149
470 1 -0.030121875 0.000116666666667 0.006496875 0.572468
471 1 -0.030121875 0.000116666666667 0.007678125 0.662899
472 1 -0.030121875 0.000116666666667 0.008859375 0.551028
473 1 -0.030121875 0.000116666666667 0.010040625 0.655569
474 1 -0.030121875 0.000116666666667 0.011221875 0.50555
475 1 -0.030121875 0.000116666666667 0.012403125 0.608811
476 1 -0.030121875 0.000116666666667 0.013584375 0.425894
477 1 -0.030121875 0.000116666666667 0.014765625 0.49755
478 1 -0.030121875 0.000116666666667 0.015946875 0.315506
479 1 -0.030121875 0.000116666666667 0.017128125 0.344245
480 1 -0.030121875 0.000116666666667 0.018309375 0.210265
481 1 -0.030121875 0.000116666666667 0.019490625 0.21108
482 1 -0.030121875 0.000116666666667 0.020671875 0.143562
483 1 -0.028940625 -0.00261666666667 -0.021853125 0.281266
484 1 -0.028940625 -0.00261666666667 -0.020671875 0.259856
485 1 -0.028940625 -0.00261666666667 -0.019490625 0.406787
486 1 -0.028940625 -0.00261666666667 -0.018309375 0.426013
487 1 -0.028940625 -0.00261666666667 -0.017128125 0.51045
488 1 -0.028940625 -0.00261666666667 -0.015946875 0.563491
489 1 -0.028940625 -0.00261666666667 -0.014765625 0.573906
490 1 -0.028940625 -0.00261666666667 -0.013584375 0.618603
491 1 -0.028940625 -0.00261666666667 -0.012403125 0.595549
492 1 -0.028940625 -0.00261666666667 -0.011221875 0.628446
493 1 -0.028940625 -0.00261666666667 -0.010040625 0.6043
494 1 -0.028940625 -0.00261666666667 -0.008859375 0.625089
495 1 -0.028940625 -0.00261666666667 -0.007678125 0.601992
496 1 -0.028940625 -0.00261666666667 -0.006496875 0.618086
497 1 -0.028940625 -0.00261666666667 -0.005315625 0.599701
498 1 -0.028940625 -0.00261666666667 -0.004134375 0.611371
499 1 -0.028940625 -0.00261666666667 -0.002953125 0.598119
500 1 -0.028940625 -0.00261666666667 -0.001771875 0.61204
501 1 -0.028940625 -0.00261666666667 -0.000590625 0.606777
502 1 -0.028940625 -0.00261666666667 0.000590625 0.623099
503 1 -0.028940625 -0.00261666666667 0.001771875 0.619227
504 1 -0.028940625 -0.00261666666667 0.002953125 0.640485
505 1 -0.028940625 -0.00261666666667 0.004134375 0.629593
506 1 -0.028940625 -0.00261666666667 0.005315625 0.654687
507 1 -0.028940625 -0.00261666666667 0.006496875 0.632839
508 1 -0.028940625 -0.00261666666667 0.007678125 0.663464
509 1 -0.028940625 -0.00261666666667 0.008859375 0.624426
510 1 -0.028940625 -0.00261666666667 0.010040625 0.663885
511 1 -0.028940625 -0.00261666666667 0.011221875 0.602076
512 1 -0.028940625 -0.00261666666667 0.012403125 0.646156
513 1 -0.028940625 -0.00261666666667 0.013584375 0.557504
514 1 -0.028940625 -0.00261666666667 0.014765625 0.574865
515 1 -0.028940625 -0.00261666666667 0.015946875 0.465175
516 1 -0.028940625 -0.00261666666667 0.017128125 0.441697
517 1 -0.028940625 -0.00261666666667 0.018309375 0.355802
518 1 -0.028940625 -0.00261666666667 0.019490625 0.301925
519 1 -0.028940625 -0.00261666666667 0.020671875 0.262094
520 1 -0.028940625 -0.00261666666667 0.021853125 0.202739
521 1 -0.028940625 -0.00125 -0.021853125 0.281266
522 1 -0.028940625 -0.00125 -0.020671875 0.259856
523 1 -0.028940625 -0.00125 -0.019490625 0.406787
524 1 -0.028940625 -0.00125 -0.018309375 0.426013
525 1 -0.028940625 -0.00125 -0.017128125 0.51045
526 1 -0.028940625 -0.00125 -0.015946875 0.563491
527 1 -0.028940625 -0.00125 -0.014765625 0.573906
528 1 -0.028940625 -0.00125 -0.013584375 0.618603
529 1 -0.028940625 -0.00125 -0.012403125 0.595549
530 1 -0.028940625 -0.00125 -0.011221875 0.628446
531 1 -0.028940625 -0.00125 -0.010040625 0.6043
532 1 -0.028940625 -0.00125 -0.008859375 0.625089
533 1 -0.028940625 -0.00125 -0.007678125 0.601992
534 1 -0.028940625 -0.00125 -0.006496875 0.618086
535 1 -0.028940625 -0.00125 -0.005315625 0.599701
536 1 -0.028940625 -0.00125 -0.004134375 0.611371
537 1 -0.028940625 -0.00125 -0.002953125 0.598119