ITEM: TIMESTEP
0
ITEM: NUMBER OF ATOMS
9240
ITEM: BOX BOUNDS ss ss ss
-3.7007399999999996e-02 3.7007399999999996e-02
-2.0002499999999999e-03 2.5000000000000004e-07
-3.7007399999999996e-02 3.7007399999999996e-02
ITEM: ATOMS id type x y z c_1
0 1 -0.037209375 -0.00261666666667 -0.000590625 0.321994
1 1 -0.037209375 -0.00125 -0.000590625 0.321994
2 1 -0.037209375 0.000116666666667 -0.000590625 0.321994
3 1 -0.036028125 -0.00261666666667 -0.007678125 0.235934
4 1 -0.036028125 -0.00261666666667 -0.006496875 0.13092
5 1 -0.036028125 -0.00261666666667 -0.005315625 0.251293
6 1 -0.036028125 -0.00261666666667 -0.004134375 0.144869
7 1 -0.036028125 -0.00261666666667 -0.002953125 0.264058
8 1 -0.036028125 -0.00261666666667 -0.001771875 0.15765
9 1 -0.036028125 -0.00261666666667 -0.000590625 0.275377
10 1 -0.036028125 -0.00261666666667 0.000590625 0.166952
11 1 -0.036028125 -0.00261666666667 0.001771875 0.281248
12 1 -0.036028125 -0.00261666666667 0.002953125 0.168301
13 1 -0.036028125 -0.00261666666667 0.004134375 0.274791
14 1 -0.036028125 -0.00261666666667 0.005315625 0.156492
15 1 -0.036028125 -0.00261666666667 0.006496875 0.256493
16 1 -0.036028125 -0.00261666666667 0.007678125 0.135853
17 1 -0.036028125 -0.00125 -0.007678125 0.235934
18 1 -0.036028125 -0.00125 -0.006496875 0.13092
19 1 -0.036028125 -0.00125 -0.005315625 0.251293
20 1 -0.036028125 -0.00125 -0.004134375 0.144869
21 1 -0.036028125 -0.00125 -0.002953125 0.264058
22 1 -0.036028125 -0.00125 -0.001771875 0.15765
23 1 -0.036028125 -0.00125 -0.000590625 0.275377
24 1 -0.036028125 -0.00125 0.000590625 0.166952
25 1 -0.036028125 -0.00125 0.001771875 0.281248
26 1 -0.036028125 -0.00125 0.002953125 0.168301
27 1 -0.036028125 -0.00125 0.004134375 0.274791
28 1 -0.036028125 -0.00125 0.005315625 0.156492
29 1 -0.036028125 -0.00125 0.006496875 0.256493
30 1 -0.036028125 -0.00125 0.007678125 0.135853
31 1 -0.036028125 0.000116666666667 -0.007678125 0.235934
32 1 -0.036028125 0.000116666666667 -0.006496875 0.13092
33 1 -0.036028125 0.000116666666667 -0.005315625 0.251293
34 1 -0.036028125 0.000116666666667 -0.004134375 0.144869
35 1 -0.036028125 0.000116666666667 -0.002953125 0.264058
36 1 -0.036028125 0.000116666666667 -0.001771875 0.15765
37 1 -0.036028125 0.000116666666667 -0.000590625 0.275377
38 1 -0.036028125 0.000116666666667 0.000590625 0.166952
39 1 -0.036028125 0.000116666666667 0.001771875 0.281248
40 1 -0.036028125 0.000116666666667 0.002953125 0.168301
41 1 -0.036028125 0.000116666666667 0.004134375 0.274791
42 1 -0.036028125 0.000116666666667 0.005315625 0.156492
43 1 -0.036028125 0.000116666666667 0.006496875 0.256493
44 1 -0.036028125 0.000116666666667 0.007678125 0.135853
45 1 -0.034846875 -0.00261666666667 -0.011221875 0.1109
46 1 -0.034846875 -0.00261666666667 -0.010040625 0.189962
47 1 -0.034846875 -0.00261666666667 -0.008859375 0.136119
48 1 -0.034846875 -0.00261666666667 -0.007678125 0.210714
49 1 -0.034846875 -0.00261666666667 -0.006496875 0.156695
50 1 -0.034846875 -0.00261666666667 -0.005315625 0.22514
51 1 -0.034846875 -0.00261666666667 -0.004134375 0.174913
52 1 -0.034846875 -0.00261666666667 -0.002953125 0.237438
53 1 -0.034846875 -0.00261666666667 -0.001771875 0.191693
54 1 -0.034846875 -0.00261666666667 -0.000590625 0.24706
55 1 -0.034846875 -0.00261666666667 0.000590625 0.204644
56 1 -0.034846875 -0.00261666666667 0.001771875 0.251905
57 1 -0.034846875 -0.00261666666667 0.002953125 0.206008
58 1 -0.034846875 -0.00261666666667 0.004134375 0.240929
59 1 -0.034846875 -0.00261666666667 0.005315625 0.194778
60 1 -0.034846875 -0.00261666666667 0.006496875 0.219696
61 1 -0.034846875 -0.00261666666667 0.007678125 0.1682
62 1 -0.034846875 -0.00261666666667 0.008859375 0.186622
63 1 -0.034846875 -0.00261666666667 0.010040625 0.13451
64 1 -0.034846875 -0.00261666666667 0.011221875 0.152726
65 1 -0.034846875 -0.00125 -0.011221875 0.1109
66 1 -0.034846875 -0.00125 -0.010040625 0.189962
67 1 -0.034846875 -0.00125 -0.008859375 0.136119
68 1 -0.034846875 -0.00125 -0.007678125 0.210714
69 1 -0.034846875 -0.00125 -0.006496875 0.156695
70 1 -0.034846875 -0.00125 -0.005315625 0.22514
71 1 -0.034846875 -0.00125 -0.004134375 0.174913
72 1 -0.034846875 -0.00125 -0.002953125 0.237438
73 1 -0.034846875 -0.00125 -0.001771875 0.191693
74 1 -0.034846875 -0.00125 -0.000590625 0.24706
75 1 -0.034846875 -0.00125 0.000590625 0.204644
76 1 -0.034846875 -0.00125 0.001771875 0.251905
77 1 -0.034846875 -0.00125 0.002953125 0.206008
78 1 -0.034846875 -0.00125 0.004134375 0.240929
79 1 -0.034846875 -0.00125 0.005315625 0.194778
80 1 -0.034846875 -0.00125 0.006496875 0.219696
81 1 -0.034846875 -0.00125 0.007678125 0.1682
82 1 -0.034846875 -0.00125 0.008859375 0.186622
83 1 -0.034846875 -0.00125 0.010040625 0.13451
84 1 -0.034846875 -0.00125 0.011221875 0.152726
85 1 -0.034846875 0.000116666666667 -0.011221875 0.1109
86 1 -0.034846875 0.000116666666667 -0.010040625 0.189962
87 1 -0.034846875 0.000116666666667 -0.008859375 0.136119
88 1 -0.034846875 0.000116666666667 -0.007678125 0.210714
89 1 -0.034846875 0.000116666666667 -0.006496875 0.156695
90 1 -0.034846875 0.000116666666667 -0.005315625 0.22514
91 1 -0.034846875 0.000116666666667 -0.004134375 0.174913
92 1 -0.034846875 0.000116666666667 -0.002953125 0.237438
93 1 -0.034846875 0.000116666666667 -0.001771875 0.191693
94 1 -0.034846875 0.000116666666667 -0.000590625 0.24706
95 1 -0.034846875 0.000116666666667 0.000590625 0.204644
96 1 -0.034846875 0.000116666666667 0.001771875 0.251905
97 1 -0.034846875 0.000116666666667 0.002953125 0.206008
98 1 -0.034846875 0.000116666666667 0.004134375 0.240929
99 1 -0.034846875 0.000116666666667 0.005315625 0.194778
100 1 -0.034846875 0.000116666666667 0.006496875 0.219696
101 1 -0.034846875 0.000116666666667 0.007678125 0.1682
102 1 -0.034846875 0.000116666666667 0.008859375 0.186622
103 1 -0.034846875 0.000116666666667 0.010040625 0.13451
104 1 -0.034846875 0.000116666666667 0.011221875 0.152726
105 1 -0.033665625 -0.00261666666667 -0.013584375 0.16943
106 1 -0.033665625 -0.00261666666667 -0.012403125 0.301133
107 1 -0.033665625 -0.00261666666667 -0.011221875 0.229086
108 1 -0.033665625 -0.00261666666667 -0.010040625 0.347966
109 1 -0.033665625 -0.00261666666667 -0.008859375 0.277761
110 1 -0.033665625 -0.00261666666667 -0.007678125 0.37583
111 1 -0.033665625 -0.00261666666667 -0.006496875 0.314364
112 1 -0.033665625 -0.00261666666667 -0.005315625 0.396499
113 1 -0.033665625 -0.00261666666667 -0.004134375 0.34205
114 1 -0.033665625 -0.00261666666667 -0.002953125 0.413627
115 1 -0.033665625 -0.00261666666667 -0.001771875 0.367573
116 1 -0.033665625 -0.00261666666667 -0.000590625 0.43109
117 1 -0.033665625 -0.00261666666667 0.000590625 0.38611
118 1 -0.033665625 -0.00261666666667 0.001771875 0.439668
119 1 -0.033665625 -0.00261666666667 0.002953125 0.389306
120 1 -0.033665625 -0.00261666666667 0.004134375 0.430482
121 1 -0.033665625 -0.00261666666667 0.005315625 0.36811
122 1 -0.033665625 -0.00261666666667 0.006496875 0.405038
123 1 -0.033665625 -0.00261666666667 0.007678125 0.326494
124 1 -0.033665625 -0.00261666666667 0.008859375 0.363121
125 1 -0.033665625 -0.00261666666667 0.010040625 0.268285
126 1 -0.033665625 -0.00261666666667 0.011221875 0.306593
127 1 -0.033665625 -0.00261666666667 0.012403125 0.20133
128 1 -0.033665625 -0.00261666666667 0.013584375 0.239449
129 1 -0.033665625 -0.00125 -0.013584375 0.16943
130 1 -0.033665625 -0.00125 -0.012403125 0.301133
131 1 -0.033665625 -0.00125 -0.011221875 0.229086
132 1 -0.033665625 -0.00125 -0.010040625 0.347966
133 1 -0.033665625 -0.00125 -0.008859375 0.277761
134 1 -0.033665625 -0.00125 -0.007678125 0.37583
135 1 -0.033665625 -0.00125 -0.006496875 0.314364
136 1 -0.033665625 -0.00125 -0.005315625 0.396499
137 1 -0.033665625 -0.00125 -0.004134375 0.34205
138 1 -0.033665625 -0.00125 -0.002953125 0.413627
139 1 -0.033665625 -0.00125 -0.001771875 0.367573
140 1 -0.033665625 -0.00125 -0.000590625 0.43109
141 1 -0.033665625 -0.00125 0.000590625 0.38611
142 1 -0.033665625 -0.00125 0.001771875 0.439668
143 1 -0.033665625 -0.00125 0.002953125 0.389306
144 1 -0.033665625 -0.00125 0.004134375 0.430482
145 1 -0.033665625 -0.00125 0.005315625 0.36811
146 1 -0.033665625 -0.00125 0.006496875 0.405038
147 1 -0.033665625 -0.00125 0.007678125 0.326494
148 1 -0.033665625 -0.00125 0.008859375 0.363121
149 1 -0.033665625 -0.00125 0.010040625 0.268285
150 1 -0.033665625 -0.00125 0.011221875 0.306593
151 1 -0.033665625 -0.00125 0.012403125 0.20133
152 1 -0.033665625 -0.00125 0.013584375 0.239449
153 1 -0.033665625 0.000116666666667 -0.013584375 0.16943
154 1 -0.033665625 0.000116666666667 -0.012403125 0.301133
155 1 -0.033665625 0.000116666666667 -0.011221875 0.229086
156 1 -0.033665625 0.000116666666667 -0.010040625 0.347966
157 1 -0.033665625 0.000116666666667 -0.008859375 0.277761
158 1 -0.033665625 0.000116666666667 -0.007678125 0.37583
159 1 -0.033665625 0.000116666666667 -0.006496875 0.314364
160 1 -0.033665625 0.000116666666667 -0.005315625 0.396499
161 1 -0.033665625 0.000116666666667 -0.004134375 0.34205
162 1 -0.033665625 0.000116666666667 -0.002953125 0.413627
163 1 -0.033665625 0.000116666666667 -0.001771875 0.367573
164 1 -0.033665625 0.000116666666667 -0.000590625 0.43109
165 1 -0.033665625 0.000116666666667 0.000590625 0.38611
166 1 -0.033665625 0.000116666666667 0.001771875 0.439668
167 1 -0.033665625 0.000116666666667 0.002953125 0.389306
168 1 -0.033665625 0.000116666666667 0.004134375 0.430482
169 1 -0.033665625 0.000116666666667 0.005315625 0.36811
170 1 -0.033665625 0.000116666666667 0.006496875 0.405038
171 1 -0.033665625 0.000116666666667 0.007678125 0.326494
172 1 -0.033665625 0.000116666666667 0.008859375 0.363121
173 1 -0.033665625 0.000116666666667 0.010040625 0.268285
174 1 -0.033665625 0.000116666666667 0.011221875 0.306593
175 1 -0.033665625 0.000116666666667 0.012403125 0.20133
176 1 -0.033665625 0.000116666666667 0.013584375 0.239449
177 1 -0.032484375 -0.00261666666667 -0.018309375 0.126825
178 1 -0.032484375 -0.00261666666667 -0.017128125 0.188219
179 1 -0.032484375 -0.00261666666667 -0.015946875 0.206524
180 1 -0.032484375 -0.00261666666667 -0.014765625 0.256768
181 1 -0.032484375 -0.00261666666667 -0.013584375 0.302089
182 1 -0.032484375 -0.00261666666667 -0.012403125 0.328459
183 1 -0.032484375 -0.00261666666667 -0.011221875 0.388891
184 1 -0.032484375 -0.00261666666667 -0.010040625 0.373964
185 1 -0.032484375 -0.00261666666667 -0.008859375 0.445055
186 1 -0.032484375 -0.00261666666667 -0.007678125 0.400615
187 1 -0.032484375 -0.00261666666667 -0.006496875 0.47247
188 1 -0.032484375 -0.00261666666667 -0.005315625 0.412482
189 1 -0.032484375 -0.00261666666667 -0.004134375 0.49392
190 1 -0.032484375 -0.00261666666667 -0.002953125 0.4225
191 1 -0.032484375 -0.00261666666667 -0.001771875 0.512262
192 1 -0.032484375 -0.00261666666667 -0.000590625 0.433579
193 1 -0.032484375 -0.00261666666667 0.000590625 0.528319
194 1 -0.032484375 -0.00261666666667 0.001771875 0.441727
195 1 -0.032484375 -0.00261666666667 0.002953125 0.536176
196 1 -0.032484375 -0.00261666666667 0.004134375 0.431423
197 1 -0.032484375 -0.00261666666667 0.005315625 0.530454
198 1 -0.032484375 -0.00261666666667 0.006496875 0.409271
199 1 -0.032484375 -0.00261666666667 0.007678125 0.495596
200 1 -0.032484375 -0.00261666666667 0.008859375 0.364066
201 1 -0.032484375 -0.00261666666667 0.010040625 0.43495
202 1 -0.032484375 -0.00261666666667 0.011221875 0.30385
203 1 -0.032484375 -0.00261666666667 0.012403125 0.345647
204 1 -0.032484375 -0.00261666666667 0.013584375 0.228065
205 1 -0.032484375 -0.00261666666667 0.014765625 0.241062
206 1 -0.032484375 -0.00261666666667 0.015946875 0.160849
207 1 -0.032484375 -0.00261666666667 0.017128125 0.149922
208 1 -0.032484375 -0.00261666666667 0.018309375 0.110617
209 1 -0.032484375 -0.00125 -0.018309375 0.126825
210 1 -0.032484375 -0.00125 -0.017128125 0.188219
211 1 -0.032484375 -0.00125 -0.015946875 0.206524
212 1 -0.032484375 -0.00125 -0.014765625 0.256768
213 1 -0.032484375 -0.00125 -0.013584375 0.302089
214 1 -0.032484375 -0.00125 -0.012403125 0.328459
215 1 -0.032484375 -0.00125 -0.011221875 0.388891
216 1 -0.032484375 -0.00125 -0.010040625 0.373964
217 1 -0.032484375 -0.00125 -0.008859375 0.445055
218 1 -0.032484375 -0.00125 -0.007678125 0.400615
219 1 -0.032484375 -0.00125 -0.006496875 0.47247
220 1 -0.032484375 -0.00125 -0.005315625 0.412482
221 1 -0.032484375 -0.00125 -0.004134375 0.49392
222 1 -0.032484375 -0.00125 -0.002953125 0.4225
223 1 -0.032484375 -0.00125 -0.001771875 0.512262
224 1 -0.032484375 -0.00125 -0.000590625 0.433579
225 1 -0.032484375 -0.00125 0.000590625 0.528319
226 1 -0.032484375 -0.00125 0.001771875 0.441727
227 1 -0.032484375 -0.00125 0.002953125 0.536176
228 1 -0.032484375 -0.00125 0.004134375 0.431423
229 1 -0.032484375 -0.00125 0.005315625 0.530454
230 1 -0.032484375 -0.00125 0.006496875 0.409271
231 1 -0.032484375 -0.00125 0.007678125 0.495596
232 1 -0.032484375 -0.00125 0.008859375 0.364066
233 1 -0.032484375 -0.00125 0.010040625 0.43495
234 1 -0.032484375 -0.00125 0.011221875 0.30385
235 1 -0.032484375 -0.00125 0.012403125 0.345647
236 1 -0.032484375 -0.00125 0.013584375 0.228065
237 1 -0.032484375 -0.00125 0.014765625 0.241062
238 1 -0.032484375 -0.00125 0.015946875 0.160849
239 1 -0.032484375 -0.00125 0.017128125 0.149922
240 1 -0.032484375 -0.00125 0.018309375 0.110617
241 1 -0.032484375 0.000116666666667 -0.018309375 0.126825
242 1 -0.032484375 0.000116666666667 -0.017128125 0.188219
243 1 -0.032484375 0.000116666666667 -0.015946875 0.206524
244 1 -0.032484375 0.000116666666667 -0.014765625 0.256768
245 1 -0.032484375 0.000116666666667 -0.013584375 0.302089
246 1 -0.032484375 0.000116666666667 -0.012403125 0.328459
247 1 -0.032484375 0.000116666666667 -0.011221875 0.388891
248 1 -0.032484375 0.000116666666667 -0.010040625 0.373964
249 1 -0.032484375 0.000116666666667 -0.008859375 0.445055
250 1 -0.032484375 0.000116666666667 -0.007678125 0.400615
251 1 -0.032484375 0.000116666666667 -0.006496875 0.47247
252 1 -0.032484375 0.000116666666667 -0.005315625 0.412482
253 1 -0.032484375 0.000116666666667 -0.004134375 0.49392
254 1 -0.032484375 0.000116666666667 -0.002953125 0.4225
255 1 -0.032484375 0.000116666666667 -0.001771875 0.512262
256 1 -0.032484375 0.000116666666667 -0.000590625 0.433579
257 1 -0.032484375 0.000116666666667 0.000590625 0.528319
258 1 -0.032484375 0.000116666666667 0.001771875 0.441727
259 1 -0.032484375 0.000116666666667 0.002953125 0.536176
260 1 -0.032484375 0.000116666666667 0.004134375 0.431423
261 1 -0.032484375 0.000116666666667 0.005315625 0.530454
262 1 -0.032484375 0.000116666666667 0.006496875 0.409271
263 1 -0.032484375 0.000116666666667 0.007678125 0.495596
264 1 -0.032484375 0.000116666666667 0.008859375 0.364066
265 1 -0.032484375 0.000116666666667 0.010040625 0.43495
266 1 -0.032484375 0.000116666666667 0.011221875 0.30385
267 1 -0.032484375 0.000116666666667 0.012403125 0.345647
268 1 -0.032484375 0.000116666666667 0.013584375 0.228065
269 1 -0.032484375 0.000116666666667 0.014765625 0.241062
270 1 -0.032484375 0.000116666666667 0.015946875 0.160849
271 1 -0.032484375 0.000116666666667 0.017128125 0.149922
272 1 -0.032484375 0.000116666666667 0.018309375 0.110617
273 1 -0.031303125 -0.00261666666667 -0.019490625 0.25516
274 1 -0.031303125 -0.00261666666667 -0.018309375 0.223459
275 1 -0.031303125 -0.00261666666667 -0.017128125 0.348959
276 1 -0.031303125 -0.00261666666667 -0.015946875 0.34793
277 1 -0.031303125 -0.00261666666667 -0.014765625 0.444616
278 1 -0.031303125 -0.00261666666667 -0.013584375 0.46562
279 1 -0.031303125 -0.00261666666667 -0.012403125 0.513804
280 1 -0.031303125 -0.00261666666667 -0.011221875 0.551536
281 1 -0.031303125 -0.00261666666667 -0.010040625 0.55526
282 1 -0.031303125 -0.00261666666667 -0.008859375 0.597484
283 1 -0.031303125 -0.00261666666667 -0.007678125 0.573632
284 1 -0.031303125 -0.00261666666667 -0.006496875 0.618021
285 1 -0.031303125 -0.00261666666667 -0.005315625 0.579786
286 1 -0.031303125 -0.00261666666667 -0.004134375 0.622786
287 1 -0.031303125 -0.00261666666667 -0.002953125 0.584654
288 1 -0.031303125 -0.00261666666667 -0.001771875 0.628752
289 1 -0.031303125 -0.00261666666667 -0.000590625 0.594575
290 1 -0.031303125 -0.00261666666667 0.000590625 0.638709
291 1 -0.031303125 -0.00261666666667 0.001771875 0.603764
292 1 -0.031303125 -0.00261666666667 0.002953125 0.649909
293 1 -0.031303125 -0.00261666666667 0.004134375 0.605903
294 1 -0.031303125 -0.00261666666667 0.005315625 0.649872
295 1 -0.031303125 -0.00261666666667 0.006496875 0.596559
296 1 -0.031303125 -0.00261666666667 0.007678125 0.63163
297 1 -0.031303125 -0.00261666666667 0.008859375 0.566982
298 1 -0.031303125 -0.00261666666667 0.010040625 0.585122
299 1 -0.031303125 -0.00261666666667 0.011221875 0.510086
300 1 -0.031303125 -0.00261666666667 0.012403125 0.502009
301 1 -0.031303125 -0.00261666666667 0.013584375 0.428957
302 1 -0.031303125 -0.00261666666667 0.014765625 0.385486
303 1 -0.031303125 -0.00261666666667 0.015946875 0.33148
304 1 -0.031303125 -0.00261666666667 0.017128125 0.26244
305 1 -0.031303125 -0.00261666666667 0.018309375 0.237397
306 1 -0.031303125 -0.00261666666667 0.019490625 0.168424
307 1 -0.031303125 -0.00125 -0.019490625 0.25516
308 1 -0.031303125 -0.00125 -0.018309375 0.223459
309 1 -0.031303125 -0.00125 -0.017128125 0.348959
310 1 -0.031303125 -0.00125 -0.015946875 0.34793
311 1 -0.031303125 -0.00125 -0.014765625 0.444616
312 1 -0.031303125 -0.00125 -0.013584375 0.46562
313 1 -0.031303125 -0.00125 -0.012403125 0.513804
314 1 -0.031303125 -0.00125 -0.011221875 0.551536
315 1 -0.031303125 -0.00125 -0.010040625 0.55526
316 1 -0.031303125 -0.00125 -0.008859375 0.597484
317 1 -0.031303125 -0.00125 -0.007678125 0.573632
318 1 -0.031303125 -0.00125 -0.006496875 0.618021
319 1 -0.031303125 -0.00125 -0.005315625 0.579786
320 1 -0.031303125 -0.00125 -0.004134375 0.622786
321 1 -0.031303125 -0.00125 -0.002953125 0.584654
322 1 -0.031303125 -0.00125 -0.001771875 0.628752
323 1 -0.031303125 -0.00125 -0.000590625 0.594575
324 1 -0.031303125 -0.00125 0.000590625 0.638709
325 1 -0.031303125 -0.00125 0.001771875 0.603764
326 1 -0.031303125 -0.00125 0.002953125 0.649909
327 1 -0.031303125 -0.00125 0.004134375 0.605903
328 1 -0.031303125 -0.00125 0.005315625 0.649872
329 1 -0.031303125 -0.00125 0.006496875 0.596559
330 1 -0.031303125 -0.00125 0.007678125 0.63163
331 1 -0.031303125 -0.00125 0.008859375 0.566982
332 1 -0.031303125 -0.00125 0.010040625 0.585122
333 1 -0.031303125 -0.00125 0.011221875 0.510086
334 1 -0.031303125 -0.00125 0.012403125 0.502009
335 1 -0.031303125 -0.00125 0.013584375 0.428957
336 1 -0.031303125 -0.00125 0.014765625 0.385486
337 1 -0.031303125 -0.00125 0.015946875 0.33148
338 1 -0.031303125 -0.00125 0.017128125 0.26244
339 1 -0.031303125 -0.00125 0.018309375 0.237397
340 1 -0.031303125 -0.00125 0.019490625 0.168424
341 1 -0.031303125 0.000116666666667 -0.019490625 0.25516
342 1 -0.031303125 0.000116666666667 -0.018309375 0.223459
343 1 -0.031303125 0.000116666666667 -0.017128125 0.348959
344 1 -0.031303125 0.000116666666667 -0.015946875 0.34793
345 1 -0.031303125 0.000116666666667 -0.014765625 0.444616
346 1 -0.031303125 0.000116666666667 -0.013584375 0.46562
347 1 -0.031303125 0.000116666666667 -0.012403125 0.513804
348 1 -0.031303125 0.000116666666667 -0.011221875 0.551536
349 1 -0.031303125 0.000116666666667 -0.010040625 0.55526
350 1 -0.031303125 0.000116666666667 -0.008859375 0.597484
351 1 -0.031303125 0.000116666666667 -0.007678125 0.573632
352 1 -0.031303125 0.000116666666667 -0.006496875 0.618021
353 1 -0.031303125 0.000116666666667 -0.005315625 0.579786
354 1 -0.031303125 0.000116666666667 -0.004134375 0.622786
355 1 -0.031303125 0.000116666666667 -0.002953125 0.584654
356 1 -0.031303125 0.000116666666667 -0.001771875 0.628752
357 1 -0.031303125 0.000116666666667 -0.000590625 0.594575
358 1 -0.031303125 0.000116666666667 0.000590625 0.638709
359 1 -0.031303125 0.000116666666667 0.001771875 0.603764
360 1 -0.031303125 0.000116666666667 0.002953125 0.649909
361 1 -0.031303125 0.000116666666667 0.004134375 0.605903
362 1 -0.031303125 0.000116666666667 0.005315625 0.649872
363 1 -0.031303125 0.000116666666667 0.006496875 0.596559
364 1 -0.031303125 0.000116666666667 0.007678125 0.63163
365 1 -0.031303125 0.000116666666667 0.008859375 0.566982
366 1 -0.031303125 0.000116666666667 0.010040625 0.585122
367 1 -0.031303125 0.000116666666667 0.011221875 0.510086
368 1 -0.031303125 0.000116666666667 0.012403125 0.502009
369 1 -0.031303125 0.000116666666667 0.013584375 0.428957
370 1 -0.031303125 0.000116666666667 0.014765625 0.385486
371 1 -0.031303125 0.000116666666667 0.015946875 0.33148
372 1 -0.031303125 0.000116666666667 0.017128125 0.26244
373 1 -0.031303125 0.000116666666667 0.018309375 0.237397
374 1 -0.031303125 0.000116666666667 0.019490625 0.168424
375 1 -0.030121875 -0.00261666666667 -0.020671875 0.190842
376 1 -0.030121875 -0.00261666666667 -0.019490625 0.263584
377 1 -0.030121875 -0.00261666666667 -0.018309375 0.312803
378 1 -0.030121875 -0.00261666666667 -0.017128125 0.377247
379 1 -0.030121875 -0.00261666666667 -0.015946875 0.446171
380 1 -0.030121875 -0.00261666666667 -0.014765625 0.478406
381 1 -0.030121875 -0.00261666666667 -0.013584375 0.554565
382 1 -0.030121875 -0.00261666666667 -0.012403125 0.535472
383 1 -0.030121875 -0.00261666666667 -0.011221875 0.617771
384 1 -0.030121875 -0.00261666666667 -0.010040625 0.558576
385 1 -0.030121875 -0.00261666666667 -0.008859375 0.635522
386 1 -0.030121875 -0.00261666666667 -0.007678125 0.566756
387 1 -0.030121875 -0.00261666666667 -0.006496875 0.630121
388 1 -0.030121875 -0.00261666666667 -0.005315625 0.566791
389 1 -0.030121875 -0.00261666666667 -0.004134375 0.620293
390 1 -0.030121875 -0.00261666666667 -0.002953125 0.568172
391 1 -0.030121875 -0.00261666666667 -0.001771875 0.619004
392 1 -0.030121875 -0.00261666666667 -0.000590625 0.573514
393 1 -0.030121875 -0.00261666666667 0.000590625 0.628912
394 1 -0.030121875 -0.00261666666667 0.001771875 0.584554
395 1 -0.030121875 -0.00261666666667 0.002953125 0.645221
396 1 -0.030121875 -0.00261666666667 0.004134375 0.585533
397 1 -0.030121875 -0.00261666666667 0.005315625 0.663056
398 1 -0.030121875 -0.00261666666667 0.006496875 0.578159
399 1 -0.030121875 -0.00261666666667 0.007678125 0.665722
400 1 -0.030121875 -0.00261666666667 0.008859375 0.54905
401 1 -0.030121875 -0.00261666666667 0.010040625 0.649164
402 1 -0.030121875 -0.00261666666667 0.011221875 0.503244
403 1 -0.030121875 -0.00261666666667 0.012403125 0.594828
404 1 -0.030121875 -0.00261666666667 0.013584375 0.428213
405 1 -0.030121875 -0.00261666666667 0.014765625 0.484794
406 1 -0.030121875 -0.00261666666667 0.015946875 0.324406
407 1 -0.030121875 -0.00261666666667 0.017128125 0.347571
408 1 -0.030121875 -0.00261666666667 0.018309375 0.225824
409 1 -0.030121875 -0.00261666666667 0.019490625 0.224633
410 1 -0.030121875 -0.00261666666667 0.020671875 0.161105
411 1 -0.030121875 -0.00125 -0.020671875 0.190842
412 1 -0.030121875 -0.00125 -0.019490625 0.263584
413 1 -0.030121875 -0.00125 -0.018309375 0.312803
414 1 -0.030121875 -0.00125 -0.017128125 0.377247
415 1 -0.030121875 -0.00125 -0.015946875 0.446171
416 1 -0.030121875 -0.00125 -0.014765625 0.478406
417 1 -0.030121875 -0.00125 -0.013584375 0.554565
418 1 -0.030121875 -0.00125 -0.012403125 0.535472
419 1 -0.030121875 -0.00125 -0.011221875 0.617771
420 1 -0.030121875 -0.00125 -0.010040625 0.558576
421 1 -0.030121875 -0.00125 -0.008859375 0.635522
422 1 -0.030121875 -0.00125 -0.007678125 0.566756
423 1 -0.030121875 -0.00125 -0.006496875 0.630121
424 1 -0.030121875 -0.00125 -0.005315625 0.566791
425 1 -0.030121875 -0.00125 -0.004134375 0.620293
426 1 -0.030121875 -0.00125 -0.002953125 0.568172
427 1 -0.030121875 -0.00125 -0.001771875 0.619004
428 1 -0.030121875 -0.00125 -0.000590625 0.573514
429 1 -0.030121875 -0.00125 0.000590625 0.628912
430 1 -0.030121875 -0.00125 0.001771875 0.584554
431 1 -0.030121875 -0.00125 0.002953125 0.645221
432 1 -0.030121875 -0.00125 0.004134375 0.585533
433 1 -0.030121875 -0.00125 0.005315625 0.663056
434 1 -0.030121875 -0.00125 0.006496875 0.578159
435 1 -0.030121875 -0.00125 0.007678125 0.665722
436 1 -0.030121875 -0.00125 0.008859375 0.54905
437 1 -0.030121875 -0.00125 0.010040625 0.649164
438 1 -0.030121875 -0.00125 0.011221875 0.503244
439 1 -0.030121875 -0.00125 0.012403125 0.594828
440 1 -0.030121875 -0.00125 0.013584375 0.428213
441 1 -0.030121875 -0.00125 0.014765625 0.484794
442 1 -0.030121875 -0.00125 0.015946875 0.324406
443 1 -0.030121875 -0.00125 0.017128125 0.347571
444 1 -0.030121875 -0.00125 0.018309375 0.225824
445 1 -0.030121875 -0.00125 0.019490625 0.224633
446 1 -0.030121875 -0.00125 0.020671875 0.161105
447 1 -0.030121875 0.000116666666667 -0.020671875 0.190842
448 1 -0.030121875 0.000116666666667 -0.019490625 0.263584
449 1 -0.030121875 0.000116666666667 -0.018309375 0.312803
450 1 -0.030121875 0.000116666666667 -0.017128125 0.377247
451 1 -0.030121875 0.000116666666667 -0.015946875 0.446171
452 1 -0.030121875 0.000116666666667 -0.014765625 0.478406
453 1 -0.030121875 0.000116666666667 -0.013584375 0.554565
454 1 -0.030121875 0.000116666666667 -0.012403125 0.535472
455 1 -0.030121875 0.000116666666667 -0.011221875 0.617771
456 1 -0.030121875 0.000116666666667 -0.010040625 0.558576
457 1 -0.030121875 0.000116666666667 -0.008859375 0.635522
458 1 -0.030121875 0.000116666666667 -0.007678125 0.566756
459 1 -0.030121875 0.000116666666667 -0.006496875 0.630121
460 1 -0.030121875 0.000116666666667 -0.005315625 0.566791
461 1 -0.030121875 0.000116666666667 -0.004134375 0.620293
462 1 -0.030121875 0.000116666666667 -0.002953125 0.568172
463 1 -0.030121875 0.000116666666667 -0.001771875 0.619004
464 1 -0.030121875 0.000116666666667 -0.000590625 0.573514
465 1 -0.030121875 0.000116666666667 0.000590625 0.628912
466 1 -0.030121875 0.000116666666667 0.001771875 0.584554
467 1 -0.030121875 0.000116666666667 0.002953125 0.645221
468 1 -0.030121875 0.000116666666667 0.004134375 0.585533
469 1 -0.030121875 0.000116666666667 0.005315625 0.663056
470 1 -0.030121875 0.000116666666667 0.006496875 0.578159
471 1 -0.030121875 0.000116666666667 0.007678125 0.665722
472 1 -0.030121875 0.000116666666667 0.008859375 0.54905
473 1 -0.030121875 0.000116666666667 0.010040625 0.649164
474 1 -0.030121875 0.000116666666667 0.011221875 0.503244
475 1 -0.030121875 0.000116666666667 0.012403125 0.594828
476 1 -0.030121875 0.000116666666667 0.013584375 0.428213
477 1 -0.030121875 0.000116666666667 0.014765625 0.484794
478 1 -0.030121875 0.000116666666667 0.015946875 0.324406
479 1 -0.030121875 0.000116666666667 0.017128125 0.347571
480 1 -0.030121875 0.000116666666667 0.018309375 0.225824
481 1 -0.030121875 0.000116666666667 0.019490625 0.224633
482 1 -0.030121875 0.000116666666667 0.020671875 0.161105
483 1 -0.028940625 -0.00261666666667 -0.021853125 0.279228
484 1 -0.028940625 -0.00261666666667 -0.020671875 0.253899
485 1 -0.028940625 -0.00261666666667 -0.019490625 0.389995
486 1 -0.028940625 -0.00261666666667 -0.018309375 0.401387
487 1 -0.028940625 -0.00261666666667 -0.017128125 0.495801
488 1 -0.028940625 -0.00261666666667 -0.015946875 0.542281
489 1 -0.028940625 -0.00261666666667 -0.014765625 0.575757
490 1 -0.028940625 -0.00261666666667 -0.013584375 0.627571
491 1 -0.028940625 -0.00261666666667 -0.012403125 0.606484
492 1 -0.028940625 -0.00261666666667 -0.011221875 0.647846
493 1 -0.028940625 -0.00261666666667 -0.010040625 0.615135
494 1 -0.028940625 -0.00261666666667 -0.008859375 0.6424
495 1 -0.028940625 -0.00261666666667 -0.007678125 0.611443
496 1 -0.028940625 -0.00261666666667 -0.006496875 0.634158
497 1 -0.028940625 -0.00261666666667 -0.005315625 0.60957
498 1 -0.028940625 -0.00261666666667 -0.004134375 0.626351
499 1 -0.028940625 -0.00261666666667 -0.002953125 0.60927
500 1 -0.028940625 -0.00261666666667 -0.001771875 0.626657
501 1 -0.028940625 -0.00261666666667 -0.000590625 0.618087
502 1 -0.028940625 -0.00261666666667 0.000590625 0.6362
503 1 -0.028940625 -0.00261666666667 0.001771875 0.628827
504 1 -0.028940625 -0.00261666666667 0.002953125 0.650611
505 1 -0.028940625 -0.00261666666667 0.004134375 0.635531
506 1 -0.028940625 -0.00261666666667 0.005315625 0.661614
507 1 -0.028940625 -0.00261666666667 0.006496875 0.635495
508 1 -0.028940625 -0.00261666666667 0.007678125 0.666474
509 1 -0.028940625 -0.00261666666667 0.008859375 0.624135
510 1 -0.028940625 -0.00261666666667 0.010040625 0.663009
511 1 -0.028940625 -0.00261666666667 0.011221875 0.598936
512 1 -0.028940625 -0.00261666666667 0.012403125 0.636301
513 1 -0.028940625 -0.00261666666667 0.013584375 0.549896
514 1 -0.028940625 -0.00261666666667 0.014765625 0.563474
515 1 -0.028940625 -0.00261666666667 0.015946875 0.459251
516 1 -0.028940625 -0.00261666666667 0.017128125 0.440487
517 1 -0.028940625 -0.00261666666667 0.018309375 0.359602
518 1 -0.028940625 -0.00261666666667 0.019490625 0.317516
519 1 -0.028940625 -0.00261666666667 0.020671875 0.274435
520 1 -0.028940625 -0.00261666666667 0.021853125 0.227336
521 1 -0.028940625 -0.00125 -0.021853125 0.279228
522 1 -0.028940625 -0.00125 -0.020671875 0.253899
523 1 -0.028940625 -0.00125 -0.019490625 0.389995
524 1 -0.028940625 -0.00125 -0.018309375 0.401387
525 1 -0.028940625 -0.00125 -0.017128125 0.495801
526 1 -0.028940625 -0.00125 -0.015946875 0.542281
527 1 -0.028940625 -0.00125 -0.014765625 0.575757
528 1 -0.028940625 -0.00125 -0.013584375 0.627571
529 1 -0.028940625 -0.00125 -0.012403125 0.606484
530 1 -0.028940625 -0.00125 -0.011221875 0.647846
531 1 -0.028940625 -0.00125 -0.010040625 0.615135
532 1 -0.028940625 -0.00125 -0.008859375 0.6424
533 1 -0.028940625 -0.00125 -0.007678125 0.611443
534 1 -0.028940625 -0.00125 -0.006496875 0.634158
535 1 -0.028940625 -0.00125 -0.005315625 0.60957
536 1 -0.028940625 -0.00125 -0.004134375 0.626351
537 1 -0.028940625 -0.00125 -0.002953125 0.60927
538 1 -0.028940625 -0.00125 -0.001771875 0.626657