ITEM: TIMESTEP
0
ITEM: NUMBER OF ATOMS
9240
ITEM: BOX BOUNDS ss ss ss
-3.7007399999999996e-02 3.7007399999999996e-02
-2.0002499999999999e-03 2.5000000000000004e-07
-3.7007399999999996e-02 3.7007399999999996e-02
ITEM: ATOMS id type x y z c_1
0 1 -0.037209375 -0.00261666666667 -0.000590625 0.299929
1 1 -0.037209375 -0.00125 -0.000590625 0.299929
2 1 -0.037209375 0.000116666666667 -0.000590625 0.299929
3 1 -0.036028125 -0.00261666666667 -0.007678125 0.27428
4 1 -0.036028125 -0.00261666666667 -0.006496875 0.174869
5 1 -0.036028125 -0.00261666666667 -0.005315625 0.277811
6 1 -0.036028125 -0.00261666666667 -0.004134375 0.178114
7 1 -0.036028125 -0.00261666666667 -0.002953125 0.277664
8 1 -0.036028125 -0.00261666666667 -0.001771875 0.178926
9 1 -0.036028125 -0.00261666666667 -0.000590625 0.27608
10 1 -0.036028125 -0.00261666666667 0.000590625 0.175433
11 1 -0.036028125 -0.00261666666667 0.001771875 0.268988
12 1 -0.036028125 -0.00261666666667 0.002953125 0.166001
13 1 -0.036028125 -0.00261666666667 0.004134375 0.254029
14 1 -0.036028125 -0.00261666666667 0.005315625 0.148843
15 1 -0.036028125 -0.00261666666667 0.006496875 0.23076
16 1 -0.036028125 -0.00261666666667 0.007678125 0.127583
17 1 -0.036028125 -0.00125 -0.007678125 0.27428
18 1 -0.036028125 -0.00125 -0.006496875 0.174869
19 1 -0.036028125 -0.00125 -0.005315625 0.277811
20 1 -0.036028125 -0.00125 -0.004134375 0.178114
21 1 -0.036028125 -0.00125 -0.002953125 0.277664
22 1 -0.036028125 -0.00125 -0.001771875 0.178926
23 1 -0.036028125 -0.00125 -0.000590625 0.27608
24 1 -0.036028125 -0.00125 0.000590625 0.175433
25 1 -0.036028125 -0.00125 0.001771875 0.268988
26 1 -0.036028125 -0.00125 0.002953125 0.166001
27 1 -0.036028125 -0.00125 0.004134375 0.254029
28 1 -0.036028125 -0.00125 0.005315625 0.148843
29 1 -0.036028125 -0.00125 0.006496875 0.23076
30 1 -0.036028125 -0.00125 0.007678125 0.127583
31 1 -0.036028125 0.000116666666667 -0.007678125 0.27428
32 1 -0.036028125 0.000116666666667 -0.006496875 0.174869
33 1 -0.036028125 0.000116666666667 -0.005315625 0.277811
34 1 -0.036028125 0.000116666666667 -0.004134375 0.178114
35 1 -0.036028125 0.000116666666667 -0.002953125 0.277664
36 1 -0.036028125 0.000116666666667 -0.001771875 0.178926
37 1 -0.036028125 0.000116666666667 -0.000590625 0.27608
38 1 -0.036028125 0.000116666666667 0.000590625 0.175433
39 1 -0.036028125 0.000116666666667 0.001771875 0.268988
40 1 -0.036028125 0.000116666666667 0.002953125 0.166001
41 1 -0.036028125 0.000116666666667 0.004134375 0.254029
42 1 -0.036028125 0.000116666666667 0.005315625 0.148843
43 1 -0.036028125 0.000116666666667 0.006496875 0.23076
44 1 -0.036028125 0.000116666666667 0.007678125 0.127583
45 1 -0.034846875 -0.00261666666667 -0.011221875 0.163495
46 1 -0.034846875 -0.00261666666667 -0.010040625 0.206842
47 1 -0.034846875 -0.00261666666667 -0.008859375 0.18726
48 1 -0.034846875 -0.00261666666667 -0.007678125 0.218872
49 1 -0.034846875 -0.00261666666667 -0.006496875 0.199335
50 1 -0.034846875 -0.00261666666667 -0.005315625 0.221496
51 1 -0.034846875 -0.00261666666667 -0.004134375 0.205552
52 1 -0.034846875 -0.00261666666667 -0.002953125 0.221829
53 1 -0.034846875 -0.00261666666667 -0.001771875 0.208259
54 1 -0.034846875 -0.00261666666667 -0.000590625 0.21901
55 1 -0.034846875 -0.00261666666667 0.000590625 0.206572
56 1 -0.034846875 -0.00261666666667 0.001771875 0.211316
57 1 -0.034846875 -0.00261666666667 0.002953125 0.195933
58 1 -0.034846875 -0.00261666666667 0.004134375 0.192633
59 1 -0.034846875 -0.00261666666667 0.005315625 0.174489
60 1 -0.034846875 -0.00261666666667 0.006496875 0.168243
61 1 -0.034846875 -0.00261666666667 0.007678125 0.145093
62 1 -0.034846875 -0.00261666666667 0.008859375 0.139573
63 1 -0.034846875 -0.00261666666667 0.010040625 0.11445
64 1 -0.034846875 -0.00261666666667 0.011221875 0.112566
65 1 -0.034846875 -0.00125 -0.011221875 0.163495
66 1 -0.034846875 -0.00125 -0.010040625 0.206842
67 1 -0.034846875 -0.00125 -0.008859375 0.18726
68 1 -0.034846875 -0.00125 -0.007678125 0.218872
69 1 -0.034846875 -0.00125 -0.006496875 0.199335
70 1 -0.034846875 -0.00125 -0.005315625 0.221496
71 1 -0.034846875 -0.00125 -0.004134375 0.205552
72 1 -0.034846875 -0.00125 -0.002953125 0.221829
73 1 -0.034846875 -0.00125 -0.001771875 0.208259
74 1 -0.034846875 -0.00125 -0.000590625 0.21901
75 1 -0.034846875 -0.00125 0.000590625 0.206572
76 1 -0.034846875 -0.00125 0.001771875 0.211316
77 1 -0.034846875 -0.00125 0.002953125 0.195933
78 1 -0.034846875 -0.00125 0.004134375 0.192633
79 1 -0.034846875 -0.00125 0.005315625 0.174489
80 1 -0.034846875 -0.00125 0.006496875 0.168243
81 1 -0.034846875 -0.00125 0.007678125 0.145093
82 1 -0.034846875 -0.00125 0.008859375 0.139573
83 1 -0.034846875 -0.00125 0.010040625 0.11445
84 1 -0.034846875 -0.00125 0.011221875 0.112566
85 1 -0.034846875 0.000116666666667 -0.011221875 0.163495
86 1 -0.034846875 0.000116666666667 -0.010040625 0.206842
87 1 -0.034846875 0.000116666666667 -0.008859375 0.18726
88 1 -0.034846875 0.000116666666667 -0.007678125 0.218872
89 1 -0.034846875 0.000116666666667 -0.006496875 0.199335
90 1 -0.034846875 0.000116666666667 -0.005315625 0.221496
91 1 -0.034846875 0.000116666666667 -0.004134375 0.205552
92 1 -0.034846875 0.000116666666667 -0.002953125 0.221829
93 1 -0.034846875 0.000116666666667 -0.001771875 0.208259
94 1 -0.034846875 0.000116666666667 -0.000590625 0.21901
95 1 -0.034846875 0.000116666666667 0.000590625 0.206572
96 1 -0.034846875 0.000116666666667 0.001771875 0.211316
97 1 -0.034846875 0.000116666666667 0.002953125 0.195933
98 1 -0.034846875 0.000116666666667 0.004134375 0.192633
99 1 -0.034846875 0.000116666666667 0.005315625 0.174489
100 1 -0.034846875 0.000116666666667 0.006496875 0.168243
101 1 -0.034846875 0.000116666666667 0.007678125 0.145093
102 1 -0.034846875 0.000116666666667 0.008859375 0.139573
103 1 -0.034846875 0.000116666666667 0.010040625 0.11445
104 1 -0.034846875 0.000116666666667 0.011221875 0.112566
105 1 -0.033665625 -0.00261666666667 -0.013584375 0.2027
106 1 -0.033665625 -0.00261666666667 -0.012403125 0.318369
107 1 -0.033665625 -0.00261666666667 -0.011221875 0.255499
108 1 -0.033665625 -0.00261666666667 -0.010040625 0.355062
109 1 -0.033665625 -0.00261666666667 -0.008859375 0.28979
110 1 -0.033665625 -0.00261666666667 -0.007678125 0.372141
111 1 -0.033665625 -0.00261666666667 -0.006496875 0.307637
112 1 -0.033665625 -0.00261666666667 -0.005315625 0.379096
113 1 -0.033665625 -0.00261666666667 -0.004134375 0.316152
114 1 -0.033665625 -0.00261666666667 -0.002953125 0.381223
115 1 -0.033665625 -0.00261666666667 -0.001771875 0.320817
116 1 -0.033665625 -0.00261666666667 -0.000590625 0.381504
117 1 -0.033665625 -0.00261666666667 0.000590625 0.317186
118 1 -0.033665625 -0.00261666666667 0.001771875 0.372727
119 1 -0.033665625 -0.00261666666667 0.002953125 0.301095
120 1 -0.033665625 -0.00261666666667 0.004134375 0.351312
121 1 -0.033665625 -0.00261666666667 0.005315625 0.266362
122 1 -0.033665625 -0.00261666666667 0.006496875 0.314155
123 1 -0.033665625 -0.00261666666667 0.007678125 0.219366
124 1 -0.033665625 -0.00261666666667 0.008859375 0.266821
125 1 -0.033665625 -0.00261666666667 0.010040625 0.166323
126 1 -0.033665625 -0.00261666666667 0.011221875 0.213816
127 1 -0.033665625 -0.00261666666667 0.012403125 0.117083
128 1 -0.033665625 -0.00261666666667 0.013584375 0.167161
129 1 -0.033665625 -0.00125 -0.013584375 0.2027
130 1 -0.033665625 -0.00125 -0.012403125 0.318369
131 1 -0.033665625 -0.00125 -0.011221875 0.255499
132 1 -0.033665625 -0.00125 -0.010040625 0.355062
133 1 -0.033665625 -0.00125 -0.008859375 0.28979
134 1 -0.033665625 -0.00125 -0.007678125 0.372141
135 1 -0.033665625 -0.00125 -0.006496875 0.307637
136 1 -0.033665625 -0.00125 -0.005315625 0.379096
137 1 -0.033665625 -0.00125 -0.004134375 0.316152
138 1 -0.033665625 -0.00125 -0.002953125 0.381223
139 1 -0.033665625 -0.00125 -0.001771875 0.320817
140 1 -0.033665625 -0.00125 -0.000590625 0.381504
141 1 -0.033665625 -0.00125 0.000590625 0.317186
142 1 -0.033665625 -0.00125 0.001771875 0.372727
143 1 -0.033665625 -0.00125 0.002953125 0.301095
144 1 -0.033665625 -0.00125 0.004134375 0.351312
145 1 -0.033665625 -0.00125 0.005315625 0.266362
146 1 -0.033665625 -0.00125 0.006496875 0.314155
147 1 -0.033665625 -0.00125 0.007678125 0.219366
148 1 -0.033665625 -0.00125 0.008859375 0.266821
149 1 -0.033665625 -0.00125 0.010040625 0.166323
150 1 -0.033665625 -0.00125 0.011221875 0.213816
151 1 -0.033665625 -0.00125 0.012403125 0.117083
152 1 -0.033665625 -0.00125 0.013584375 0.167161
153 1 -0.033665625 0.000116666666667 -0.013584375 0.2027
154 1 -0.033665625 0.000116666666667 -0.012403125 0.318369
155 1 -0.033665625 0.000116666666667 -0.011221875 0.255499
156 1 -0.033665625 0.000116666666667 -0.010040625 0.355062
157 1 -0.033665625 0.000116666666667 -0.008859375 0.28979
158 1 -0.033665625 0.000116666666667 -0.007678125 0.372141
159 1 -0.033665625 0.000116666666667 -0.006496875 0.307637
160 1 -0.033665625 0.000116666666667 -0.005315625 0.379096
161 1 -0.033665625 0.000116666666667 -0.004134375 0.316152
162 1 -0.033665625 0.000116666666667 -0.002953125 0.381223
163 1 -0.033665625 0.000116666666667 -0.001771875 0.320817
164 1 -0.033665625 0.000116666666667 -0.000590625 0.381504
165 1 -0.033665625 0.000116666666667 0.000590625 0.317186
166 1 -0.033665625 0.000116666666667 0.001771875 0.372727
167 1 -0.033665625 0.000116666666667 0.002953125 0.301095
168 1 -0.033665625 0.000116666666667 0.004134375 0.351312
169 1 -0.033665625 0.000116666666667 0.005315625 0.266362
170 1 -0.033665625 0.000116666666667 0.006496875 0.314155
171 1 -0.033665625 0.000116666666667 0.007678125 0.219366
172 1 -0.033665625 0.000116666666667 0.008859375 0.266821
173 1 -0.033665625 0.000116666666667 0.010040625 0.166323
174 1 -0.033665625 0.000116666666667 0.011221875 0.213816
175 1 -0.033665625 0.000116666666667 0.012403125 0.117083
176 1 -0.033665625 0.000116666666667 0.013584375 0.167161
177 1 -0.032484375 -0.00261666666667 -0.018309375 0.123116
178 1 -0.032484375 -0.00261666666667 -0.017128125 0.189125
179 1 -0.032484375 -0.00261666666667 -0.015946875 0.199889
180 1 -0.032484375 -0.00261666666667 -0.014765625 0.256534
181 1 -0.032484375 -0.00261666666667 -0.013584375 0.281831
182 1 -0.032484375 -0.00261666666667 -0.012403125 0.316847
183 1 -0.032484375 -0.00261666666667 -0.011221875 0.348381
184 1 -0.032484375 -0.00261666666667 -0.010040625 0.350305
185 1 -0.032484375 -0.00261666666667 -0.008859375 0.389623
186 1 -0.032484375 -0.00261666666667 -0.007678125 0.366655
187 1 -0.032484375 -0.00261666666667 -0.006496875 0.408273
188 1 -0.032484375 -0.00261666666667 -0.005315625 0.369742
189 1 -0.032484375 -0.00261666666667 -0.004134375 0.419067
190 1 -0.032484375 -0.00261666666667 -0.002953125 0.370666
191 1 -0.032484375 -0.00261666666667 -0.001771875 0.426387
192 1 -0.032484375 -0.00261666666667 -0.000590625 0.368992
193 1 -0.032484375 -0.00261666666667 0.000590625 0.428455
194 1 -0.032484375 -0.00261666666667 0.001771875 0.361074
195 1 -0.032484375 -0.00261666666667 0.002953125 0.416051
196 1 -0.032484375 -0.00261666666667 0.004134375 0.336556
197 1 -0.032484375 -0.00261666666667 0.005315625 0.383123
198 1 -0.032484375 -0.00261666666667 0.006496875 0.294829
199 1 -0.032484375 -0.00261666666667 0.007678125 0.327695
200 1 -0.032484375 -0.00261666666667 0.008859375 0.23904
201 1 -0.032484375 -0.00261666666667 0.010040625 0.255621
202 1 -0.032484375 -0.00261666666667 0.011221875 0.182037
203 1 -0.032484375 -0.00261666666667 0.012403125 0.181085
204 1 -0.032484375 -0.00261666666667 0.013584375 0.129611
205 1 -0.032484375 -0.00261666666667 0.014765625 0.117546
206 1 -0.032484375 -0.00261666666667 0.015946875 0.0887614
207 1 -0.032484375 -0.00261666666667 0.017128125 0.0764231
208 1 -0.032484375 -0.00261666666667 0.018309375 0.064132
209 1 -0.032484375 -0.00125 -0.018309375 0.123116
210 1 -0.032484375 -0.00125 -0.017128125 0.189125
211 1 -0.032484375 -0.00125 -0.015946875 0.199889
212 1 -0.032484375 -0.00125 -0.014765625 0.256534
213 1 -0.032484375 -0.00125 -0.013584375 0.281831
214 1 -0.032484375 -0.00125 -0.012403125 0.316847
215 1 -0.032484375 -0.00125 -0.011221875 0.348381
216 1 -0.032484375 -0.00125 -0.010040625 0.350305
217 1 -0.032484375 -0.00125 -0.008859375 0.389623
218 1 -0.032484375 -0.00125 -0.007678125 0.366655
219 1 -0.032484375 -0.00125 -0.006496875 0.408273
220 1 -0.032484375 -0.00125 -0.005315625 0.369742
221 1 -0.032484375 -0.00125 -0.004134375 0.419067
222 1 -0.032484375 -0.00125 -0.002953125 0.370666
223 1 -0.032484375 -0.00125 -0.001771875 0.426387
224 1 -0.032484375 -0.00125 -0.000590625 0.368992
225 1 -0.032484375 -0.00125 0.000590625 0.428455
226 1 -0.032484375 -0.00125 0.001771875 0.361074
227 1 -0.032484375 -0.00125 0.002953125 0.416051
228 1 -0.032484375 -0.00125 0.004134375 0.336556
229 1 -0.032484375 -0.00125 0.005315625 0.383123
230 1 -0.032484375 -0.00125 0.006496875 0.294829
231 1 -0.032484375 -0.00125 0.007678125 0.327695
232 1 -0.032484375 -0.00125 0.008859375 0.23904
233 1 -0.032484375 -0.00125 0.010040625 0.255621
234 1 -0.032484375 -0.00125 0.011221875 0.182037
235 1 -0.032484375 -0.00125 0.012403125 0.181085
236 1 -0.032484375 -0.00125 0.013584375 0.129611
237 1 -0.032484375 -0.00125 0.014765625 0.117546
238 1 -0.032484375 -0.00125 0.015946875 0.0887614
239 1 -0.032484375 -0.00125 0.017128125 0.0764231
240 1 -0.032484375 -0.00125 0.018309375 0.064132
241 1 -0.032484375 0.000116666666667 -0.018309375 0.123116
242 1 -0.032484375 0.000116666666667 -0.017128125 0.189125
243 1 -0.032484375 0.000116666666667 -0.015946875 0.199889
244 1 -0.032484375 0.000116666666667 -0.014765625 0.256534
245 1 -0.032484375 0.000116666666667 -0.013584375 0.281831
246 1 -0.032484375 0.000116666666667 -0.012403125 0.316847
247 1 -0.032484375 0.000116666666667 -0.011221875 0.348381
248 1 -0.032484375 0.000116666666667 -0.010040625 0.350305
249 1 -0.032484375 0.000116666666667 -0.008859375 0.389623
250 1 -0.032484375 0.000116666666667 -0.007678125 0.366655
251 1 -0.032484375 0.000116666666667 -0.006496875 0.408273
252 1 -0.032484375 0.000116666666667 -0.005315625 0.369742
253 1 -0.032484375 0.000116666666667 -0.004134375 0.419067
254 1 -0.032484375 0.000116666666667 -0.002953125 0.370666
255 1 -0.032484375 0.000116666666667 -0.001771875 0.426387
256 1 -0.032484375 0.000116666666667 -0.000590625 0.368992
257 1 -0.032484375 0.000116666666667 0.000590625 0.428455
258 1 -0.032484375 0.000116666666667 0.001771875 0.361074
259 1 -0.032484375 0.000116666666667 0.002953125 0.416051
260 1 -0.032484375 0.000116666666667 0.004134375 0.336556
261 1 -0.032484375 0.000116666666667 0.005315625 0.383123
262 1 -0.032484375 0.000116666666667 0.006496875 0.294829
263 1 -0.032484375 0.000116666666667 0.007678125 0.327695
264 1 -0.032484375 0.000116666666667 0.008859375 0.23904
265 1 -0.032484375 0.000116666666667 0.010040625 0.255621
266 1 -0.032484375 0.000116666666667 0.011221875 0.182037
267 1 -0.032484375 0.000116666666667 0.012403125 0.181085
268 1 -0.032484375 0.000116666666667 0.013584375 0.129611
269 1 -0.032484375 0.000116666666667 0.014765625 0.117546
270 1 -0.032484375 0.000116666666667 0.015946875 0.0887614
271 1 -0.032484375 0.000116666666667 0.017128125 0.0764231
272 1 -0.032484375 0.000116666666667 0.018309375 0.064132
273 1 -0.031303125 -0.00261666666667 -0.019490625 0.238438
274 1 -0.031303125 -0.00261666666667 -0.018309375 0.221335
275 1 -0.031303125 -0.00261666666667 -0.017128125 0.330089
276 1 -0.031303125 -0.00261666666667 -0.015946875 0.340314
277 1 -0.031303125 -0.00261666666667 -0.014765625 0.418863
278 1 -0.031303125 -0.00261666666667 -0.013584375 0.441152
279 1 -0.031303125 -0.00261666666667 -0.012403125 0.478397
280 1 -0.031303125 -0.00261666666667 -0.011221875 0.506374
281 1 -0.031303125 -0.00261666666667 -0.010040625 0.511293
282 1 -0.031303125 -0.00261666666667 -0.008859375 0.538701
283 1 -0.031303125 -0.00261666666667 -0.007678125 0.523245
284 1 -0.031303125 -0.00261666666667 -0.006496875 0.551299
285 1 -0.031303125 -0.00261666666667 -0.005315625 0.527123
286 1 -0.031303125 -0.00261666666667 -0.004134375 0.555965
287 1 -0.031303125 -0.00261666666667 -0.002953125 0.527981
288 1 -0.031303125 -0.00261666666667 -0.001771875 0.561492
289 1 -0.031303125 -0.00261666666667 -0.000590625 0.530829
290 1 -0.031303125 -0.00261666666667 0.000590625 0.563427
291 1 -0.031303125 -0.00261666666667 0.001771875 0.528696
292 1 -0.031303125 -0.00261666666667 0.002953125 0.558683
293 1 -0.031303125 -0.00261666666667 0.004134375 0.5178
294 1 -0.031303125 -0.00261666666667 0.005315625 0.533855
295 1 -0.031303125 -0.00261666666667 0.006496875 0.487162
296 1 -0.031303125 -0.00261666666667 0.007678125 0.480924
297 1 -0.031303125 -0.00261666666667 0.008859375 0.437007
298 1 -0.031303125 -0.00261666666667 0.010040625 0.398254
299 1 -0.031303125 -0.00261666666667 0.011221875 0.363858
300 1 -0.031303125 -0.00261666666667 0.012403125 0.296321
301 1 -0.031303125 -0.00261666666667 0.013584375 0.281011
302 1 -0.031303125 -0.00261666666667 0.014765625 0.196556
303 1 -0.031303125 -0.00261666666667 0.015946875 0.203142
304 1 -0.031303125 -0.00261666666667 0.017128125 0.121224
305 1 -0.031303125 -0.00261666666667 0.018309375 0.148102
306 1 -0.031303125 -0.00261666666667 0.019490625 0.0752975
307 1 -0.031303125 -0.00125 -0.019490625 0.238438
308 1 -0.031303125 -0.00125 -0.018309375 0.221335
309 1 -0.031303125 -0.00125 -0.017128125 0.330089
310 1 -0.031303125 -0.00125 -0.015946875 0.340314
311 1 -0.031303125 -0.00125 -0.014765625 0.418863
312 1 -0.031303125 -0.00125 -0.013584375 0.441152
313 1 -0.031303125 -0.00125 -0.012403125 0.478397
314 1 -0.031303125 -0.00125 -0.011221875 0.506374
315 1 -0.031303125 -0.00125 -0.010040625 0.511293
316 1 -0.031303125 -0.00125 -0.008859375 0.538701
317 1 -0.031303125 -0.00125 -0.007678125 0.523245
318 1 -0.031303125 -0.00125 -0.006496875 0.551299
319 1 -0.031303125 -0.00125 -0.005315625 0.527123
320 1 -0.031303125 -0.00125 -0.004134375 0.555965
321 1 -0.031303125 -0.00125 -0.002953125 0.527981
322 1 -0.031303125 -0.00125 -0.001771875 0.561492
323 1 -0.031303125 -0.00125 -0.000590625 0.530829
324 1 -0.031303125 -0.00125 0.000590625 0.563427
325 1 -0.031303125 -0.00125 0.001771875 0.528696
326 1 -0.031303125 -0.00125 0.002953125 0.558683
327 1 -0.031303125 -0.00125 0.004134375 0.5178
328 1 -0.031303125 -0.00125 0.005315625 0.533855
329 1 -0.031303125 -0.00125 0.006496875 0.487162
330 1 -0.031303125 -0.00125 0.007678125 0.480924
331 1 -0.031303125 -0.00125 0.008859375 0.437007
332 1 -0.031303125 -0.00125 0.010040625 0.398254
333 1 -0.031303125 -0.00125 0.011221875 0.363858
334 1 -0.031303125 -0.00125 0.012403125 0.296321
335 1 -0.031303125 -0.00125 0.013584375 0.281011
336 1 -0.031303125 -0.00125 0.014765625 0.196556
337 1 -0.031303125 -0.00125 0.015946875 0.203142
338 1 -0.031303125 -0.00125 0.017128125 0.121224
339 1 -0.031303125 -0.00125 0.018309375 0.148102
340 1 -0.031303125 -0.00125 0.019490625 0.0752975
341 1 -0.031303125 0.000116666666667 -0.019490625 0.238438
342 1 -0.031303125 0.000116666666667 -0.018309375 0.221335
343 1 -0.031303125 0.000116666666667 -0.017128125 0.330089
344 1 -0.031303125 0.000116666666667 -0.015946875 0.340314
345 1 -0.031303125 0.000116666666667 -0.014765625 0.418863
346 1 -0.031303125 0.000116666666667 -0.013584375 0.441152
347 1 -0.031303125 0.000116666666667 -0.012403125 0.478397
348 1 -0.031303125 0.000116666666667 -0.011221875 0.506374
349 1 -0.031303125 0.000116666666667 -0.010040625 0.511293
350 1 -0.031303125 0.000116666666667 -0.008859375 0.538701
351 1 -0.031303125 0.000116666666667 -0.007678125 0.523245
352 1 -0.031303125 0.000116666666667 -0.006496875 0.551299
353 1 -0.031303125 0.000116666666667 -0.005315625 0.527123
354 1 -0.031303125 0.000116666666667 -0.004134375 0.555965
355 1 -0.031303125 0.000116666666667 -0.002953125 0.527981
356 1 -0.031303125 0.000116666666667 -0.001771875 0.561492
357 1 -0.031303125 0.000116666666667 -0.000590625 0.530829
358 1 -0.031303125 0.000116666666667 0.000590625 0.563427
359 1 -0.031303125 0.000116666666667 0.001771875 0.528696
360 1 -0.031303125 0.000116666666667 0.002953125 0.558683
361 1 -0.031303125 0.000116666666667 0.004134375 0.5178
362 1 -0.031303125 0.000116666666667 0.005315625 0.533855
363 1 -0.031303125 0.000116666666667 0.006496875 0.487162
364 1 -0.031303125 0.000116666666667 0.007678125 0.480924
365 1 -0.031303125 0.000116666666667 0.008859375 0.437007
366 1 -0.031303125 0.000116666666667 0.010040625 0.398254
367 1 -0.031303125 0.000116666666667 0.011221875 0.363858
368 1 -0.031303125 0.000116666666667 0.012403125 0.296321
369 1 -0.031303125 0.000116666666667 0.013584375 0.281011
370 1 -0.031303125 0.000116666666667 0.014765625 0.196556
371 1 -0.031303125 0.000116666666667 0.015946875 0.203142
372 1 -0.031303125 0.000116666666667 0.017128125 0.121224
373 1 -0.031303125 0.000116666666667 0.018309375 0.148102
374 1 -0.031303125 0.000116666666667 0.019490625 0.0752975
375 1 -0.030121875 -0.00261666666667 -0.020671875 0.169305
376 1 -0.030121875 -0.00261666666667 -0.019490625 0.246728
377 1 -0.030121875 -0.00261666666667 -0.018309375 0.278547
378 1 -0.030121875 -0.00261666666667 -0.017128125 0.354643
379 1 -0.030121875 -0.00261666666667 -0.015946875 0.388623
380 1 -0.030121875 -0.00261666666667 -0.014765625 0.431711
381 1 -0.030121875 -0.00261666666667 -0.013584375 0.476042
382 1 -0.030121875 -0.00261666666667 -0.012403125 0.482797
383 1 -0.030121875 -0.00261666666667 -0.011221875 0.525244
384 1 -0.030121875 -0.00261666666667 -0.010040625 0.505594
385 1 -0.030121875 -0.00261666666667 -0.008859375 0.549606
386 1 -0.030121875 -0.00261666666667 -0.007678125 0.516642
387 1 -0.030121875 -0.00261666666667 -0.006496875 0.556236
388 1 -0.030121875 -0.00261666666667 -0.005315625 0.517784
389 1 -0.030121875 -0.00261666666667 -0.004134375 0.560016
390 1 -0.030121875 -0.00261666666667 -0.002953125 0.518059
391 1 -0.030121875 -0.00261666666667 -0.001771875 0.566257
392 1 -0.030121875 -0.00261666666667 -0.000590625 0.519136
393 1 -0.030121875 -0.00261666666667 0.000590625 0.575316
394 1 -0.030121875 -0.00261666666667 0.001771875 0.516802
395 1 -0.030121875 -0.00261666666667 0.002953125 0.581556
396 1 -0.030121875 -0.00261666666667 0.004134375 0.501284
397 1 -0.030121875 -0.00261666666667 0.005315625 0.577219
398 1 -0.030121875 -0.00261666666667 0.006496875 0.472946
399 1 -0.030121875 -0.00261666666667 0.007678125 0.550471
400 1 -0.030121875 -0.00261666666667 0.008859375 0.423564
401 1 -0.030121875 -0.00261666666667 0.010040625 0.495115
402 1 -0.030121875 -0.00261666666667 0.011221875 0.35537
403 1 -0.030121875 -0.00261666666667 0.012403125 0.394506
404 1 -0.030121875 -0.00261666666667 0.013584375 0.263096
405 1 -0.030121875 -0.00261666666667 0.014765625 0.271867
406 1 -0.030121875 -0.00261666666667 0.015946875 0.177819
407 1 -0.030121875 -0.00261666666667 0.017128125 0.172271
408 1 -0.030121875 -0.00261666666667 0.018309375 0.118933
409 1 -0.030121875 -0.00261666666667 0.019490625 0.10645
410 1 -0.030121875 -0.00261666666667 0.020671875 0.0841034
411 1 -0.030121875 -0.00125 -0.020671875 0.169305
412 1 -0.030121875 -0.00125 -0.019490625 0.246728
413 1 -0.030121875 -0.00125 -0.018309375 0.278547
414 1 -0.030121875 -0.00125 -0.017128125 0.354643
415 1 -0.030121875 -0.00125 -0.015946875 0.388623
416 1 -0.030121875 -0.00125 -0.014765625 0.431711
417 1 -0.030121875 -0.00125 -0.013584375 0.476042
418 1 -0.030121875 -0.00125 -0.012403125 0.482797
419 1 -0.030121875 -0.00125 -0.011221875 0.525244
420 1 -0.030121875 -0.00125 -0.010040625 0.505594
421 1 -0.030121875 -0.00125 -0.008859375 0.549606
422 1 -0.030121875 -0.00125 -0.007678125 0.516642
423 1 -0.030121875 -0.00125 -0.006496875 0.556236
424 1 -0.030121875 -0.00125 -0.005315625 0.517784
425 1 -0.030121875 -0.00125 -0.004134375 0.560016
426 1 -0.030121875 -0.00125 -0.002953125 0.518059
427 1 -0.030121875 -0.00125 -0.001771875 0.566257
428 1 -0.030121875 -0.00125 -0.000590625 0.519136
429 1 -0.030121875 -0.00125 0.000590625 0.575316
430 1 -0.030121875 -0.00125 0.001771875 0.516802
431 1 -0.030121875 -0.00125 0.002953125 0.581556
432 1 -0.030121875 -0.00125 0.004134375 0.501284
433 1 -0.030121875 -0.00125 0.005315625 0.577219
434 1 -0.030121875 -0.00125 0.006496875 0.472946
435 1 -0.030121875 -0.00125 0.007678125 0.550471
436 1 -0.030121875 -0.00125 0.008859375 0.423564
437 1 -0.030121875 -0.00125 0.010040625 0.495115
438 1 -0.030121875 -0.00125 0.011221875 0.35537
439 1 -0.030121875 -0.00125 0.012403125 0.394506
440 1 -0.030121875 -0.00125 0.013584375 0.263096
441 1 -0.030121875 -0.00125 0.014765625 0.271867
442 1 -0.030121875 -0.00125 0.015946875 0.177819
443 1 -0.030121875 -0.00125 0.017128125 0.172271
444 1 -0.030121875 -0.00125 0.018309375 0.118933
445 1 -0.030121875 -0.00125 0.019490625 0.10645
446 1 -0.030121875 -0.00125 0.020671875 0.0841034
447 1 -0.030121875 0.000116666666667 -0.020671875 0.169305
448 1 -0.030121875 0.000116666666667 -0.019490625 0.246728
449 1 -0.030121875 0.000116666666667 -0.018309375 0.278547
450 1 -0.030121875 0.000116666666667 -0.017128125 0.354643
451 1 -0.030121875 0.000116666666667 -0.015946875 0.388623
452 1 -0.030121875 0.000116666666667 -0.014765625 0.431711
453 1 -0.030121875 0.000116666666667 -0.013584375 0.476042
454 1 -0.030121875 0.000116666666667 -0.012403125 0.482797
455 1 -0.030121875 0.000116666666667 -0.011221875 0.525244
456 1 -0.030121875 0.000116666666667 -0.010040625 0.505594
457 1 -0.030121875 0.000116666666667 -0.008859375 0.549606
458 1 -0.030121875 0.000116666666667 -0.007678125 0.516642
459 1 -0.030121875 0.000116666666667 -0.006496875 0.556236
460 1 -0.030121875 0.000116666666667 -0.005315625 0.517784
461 1 -0.030121875 0.000116666666667 -0.004134375 0.560016
462 1 -0.030121875 0.000116666666667 -0.002953125 0.518059
463 1 -0.030121875 0.000116666666667 -0.001771875 0.566257
464 1 -0.030121875 0.000116666666667 -0.000590625 0.519136
465 1 -0.030121875 0.000116666666667 0.000590625 0.575316
466 1 -0.030121875 0.000116666666667 0.001771875 0.516802
467 1 -0.030121875 0.000116666666667 0.002953125 0.581556
468 1 -0.030121875 0.000116666666667 0.004134375 0.501284
469 1 -0.030121875 0.000116666666667 0.005315625 0.577219
470 1 -0.030121875 0.000116666666667 0.006496875 0.472946
471 1 -0.030121875 0.000116666666667 0.007678125 0.550471
472 1 -0.030121875 0.000116666666667 0.008859375 0.423564
473 1 -0.030121875 0.000116666666667 0.010040625 0.495115
474 1 -0.030121875 0.000116666666667 0.011221875 0.35537
475 1 -0.030121875 0.000116666666667 0.012403125 0.394506
476 1 -0.030121875 0.000116666666667 0.013584375 0.263096
477 1 -0.030121875 0.000116666666667 0.014765625 0.271867
478 1 -0.030121875 0.000116666666667 0.015946875 0.177819
479 1 -0.030121875 0.000116666666667 0.017128125 0.172271
480 1 -0.030121875 0.000116666666667 0.018309375 0.118933
481 1 -0.030121875 0.000116666666667 0.019490625 0.10645
482 1 -0.030121875 0.000116666666667 0.020671875 0.0841034
483 1 -0.028940625 -0.00261666666667 -0.021853125 0.265048
484 1 -0.028940625 -0.00261666666667 -0.020671875 0.261002
485 1 -0.028940625 -0.00261666666667 -0.019490625 0.371934
486 1 -0.028940625 -0.00261666666667 -0.018309375 0.401564
487 1 -0.028940625 -0.00261666666667 -0.017128125 0.466002
488 1 -0.028940625 -0.00261666666667 -0.015946875 0.50848
489 1 -0.028940625 -0.00261666666667 -0.014765625 0.520042
490 1 -0.028940625 -0.00261666666667 -0.013584375 0.553678
491 1 -0.028940625 -0.00261666666667 -0.012403125 0.551296
492 1 -0.028940625 -0.00261666666667 -0.011221875 0.579331
493 1 -0.028940625 -0.00261666666667 -0.010040625 0.568719
494 1 -0.028940625 -0.00261666666667 -0.008859375 0.591136
495 1 -0.028940625 -0.00261666666667 -0.007678125 0.574269
496 1 -0.028940625 -0.00261666666667 -0.006496875 0.596132
497 1 -0.028940625 -0.00261666666667 -0.005315625 0.576263
498 1 -0.028940625 -0.00261666666667 -0.004134375 0.597212
499 1 -0.028940625 -0.00261666666667 -0.002953125 0.576227
500 1 -0.028940625 -0.00261666666667 -0.001771875 0.60163
501 1 -0.028940625 -0.00261666666667 -0.000590625 0.580396
502 1 -0.028940625 -0.00261666666667 0.000590625 0.606991
503 1 -0.028940625 -0.00261666666667 0.001771875 0.582869
504 1 -0.028940625 -0.00261666666667 0.002953125 0.612794
505 1 -0.028940625 -0.00261666666667 0.004134375 0.581221
506 1 -0.028940625 -0.00261666666667 0.005315625 0.612206
507 1 -0.028940625 -0.00261666666667 0.006496875 0.570767
508 1 -0.028940625 -0.00261666666667 0.007678125 0.603475
509 1 -0.028940625 -0.00261666666667 0.008859375 0.548538
510 1 -0.028940625 -0.00261666666667 0.010040625 0.575513
511 1 -0.028940625 -0.00261666666667 0.011221875 0.506383
512 1 -0.028940625 -0.00261666666667 0.012403125 0.506255
513 1 -0.028940625 -0.00261666666667 0.013584375 0.430339
514 1 -0.028940625 -0.00261666666667 0.014765625 0.386937
515 1 -0.028940625 -0.00261666666667 0.015946875 0.331102
516 1 -0.028940625 -0.00261666666667 0.017128125 0.261005
517 1 -0.028940625 -0.00261666666667 0.018309375 0.242197
518 1 -0.028940625 -0.00261666666667 0.019490625 0.168263
519 1 -0.028940625 -0.00261666666667 0.020671875 0.180331
520 1 -0.028940625 -0.00261666666667 0.021853125 0.110835
521 1 -0.028940625 -0.00125 -0.021853125 0.265048
522 1 -0.028940625 -0.00125 -0.020671875 0.261002
523 1 -0.028940625 -0.00125 -0.019490625 0.371934
524 1 -0.028940625 -0.00125 -0.018309375 0.401564
525 1 -0.028940625 -0.00125 -0.017128125 0.466002
526 1 -0.028940625 -0.00125 -0.015946875 0.50848
527 1 -0.028940625 -0.00125 -0.014765625 0.520042
528 1 -0.028940625 -0.00125 -0.013584375 0.553678
529 1 -0.028940625 -0.00125 -0.012403125 0.551296
530 1 -0.028940625 -0.00125 -0.011221875 0.579331
531 1 -0.028940625 -0.00125 -0.010040625 0.568719
532 1 -0.028940625 -0.00125 -0.008859375 0.591136
533 1 -0.028940625 -0.00125 -0.007678125 0.574269
534 1 -0.028940625 -0.00125 -0.006496875 0.596132
535 1 -0.028940625 -0.00125 -0.005315625 0.576263
536 1 -0.028940625 -0.00125 -0.004134375 0.597212
537 1 -0.028940625 -0.00125 -0.002953125 0.576227