ITEM: TIMESTEP
0
ITEM: NUMBER OF ATOMS
9240
ITEM: BOX BOUNDS ss ss ss
-3.7007399999999996e-02 3.7007399999999996e-02
-2.0002499999999999e-03 2.5000000000000004e-07
-3.7007399999999996e-02 3.7007399999999996e-02
ITEM: ATOMS id type x y z c_1
0 1 -0.037209375 -0.00261666666667 -0.000590625 0.348546
1 1 -0.037209375 -0.00125 -0.000590625 0.348546
2 1 -0.037209375 0.000116666666667 -0.000590625 0.348546
3 1 -0.036028125 -0.00261666666667 -0.007678125 0.408794
4 1 -0.036028125 -0.00261666666667 -0.006496875 0.308789
5 1 -0.036028125 -0.00261666666667 -0.005315625 0.411626
6 1 -0.036028125 -0.00261666666667 -0.004134375 0.309824
7 1 -0.036028125 -0.00261666666667 -0.002953125 0.410512
8 1 -0.036028125 -0.00261666666667 -0.001771875 0.309735
9 1 -0.036028125 -0.00261666666667 -0.000590625 0.407687
10 1 -0.036028125 -0.00261666666667 0.000590625 0.306965
11 1 -0.036028125 -0.00261666666667 0.001771875 0.400547
12 1 -0.036028125 -0.00261666666667 0.002953125 0.300577
13 1 -0.036028125 -0.00261666666667 0.004134375 0.388264
14 1 -0.036028125 -0.00261666666667 0.005315625 0.2889
15 1 -0.036028125 -0.00261666666667 0.006496875 0.370158
16 1 -0.036028125 -0.00261666666667 0.007678125 0.274314
17 1 -0.036028125 -0.00125 -0.007678125 0.408794
18 1 -0.036028125 -0.00125 -0.006496875 0.308789
19 1 -0.036028125 -0.00125 -0.005315625 0.411626
20 1 -0.036028125 -0.00125 -0.004134375 0.309824
21 1 -0.036028125 -0.00125 -0.002953125 0.410512
22 1 -0.036028125 -0.00125 -0.001771875 0.309735
23 1 -0.036028125 -0.00125 -0.000590625 0.407687
24 1 -0.036028125 -0.00125 0.000590625 0.306965
25 1 -0.036028125 -0.00125 0.001771875 0.400547
26 1 -0.036028125 -0.00125 0.002953125 0.300577
27 1 -0.036028125 -0.00125 0.004134375 0.388264
28 1 -0.036028125 -0.00125 0.005315625 0.2889
29 1 -0.036028125 -0.00125 0.006496875 0.370158
30 1 -0.036028125 -0.00125 0.007678125 0.274314
31 1 -0.036028125 0.000116666666667 -0.007678125 0.408794
32 1 -0.036028125 0.000116666666667 -0.006496875 0.308789
33 1 -0.036028125 0.000116666666667 -0.005315625 0.411626
34 1 -0.036028125 0.000116666666667 -0.004134375 0.309824
35 1 -0.036028125 0.000116666666667 -0.002953125 0.410512
36 1 -0.036028125 0.000116666666667 -0.001771875 0.309735
37 1 -0.036028125 0.000116666666667 -0.000590625 0.407687
38 1 -0.036028125 0.000116666666667 0.000590625 0.306965
39 1 -0.036028125 0.000116666666667 0.001771875 0.400547
40 1 -0.036028125 0.000116666666667 0.002953125 0.300577
41 1 -0.036028125 0.000116666666667 0.004134375 0.388264
42 1 -0.036028125 0.000116666666667 0.005315625 0.2889
43 1 -0.036028125 0.000116666666667 0.006496875 0.370158
44 1 -0.036028125 0.000116666666667 0.007678125 0.274314
45 1 -0.034846875 -0.00261666666667 -0.011221875 0.26466
46 1 -0.034846875 -0.00261666666667 -0.010040625 0.306196
47 1 -0.034846875 -0.00261666666667 -0.008859375 0.278321
48 1 -0.034846875 -0.00261666666667 -0.007678125 0.310289
49 1 -0.034846875 -0.00261666666667 -0.006496875 0.286579
50 1 -0.034846875 -0.00261666666667 -0.005315625 0.309918
51 1 -0.034846875 -0.00261666666667 -0.004134375 0.291777
52 1 -0.034846875 -0.00261666666667 -0.002953125 0.30844
53 1 -0.034846875 -0.00261666666667 -0.001771875 0.29386
54 1 -0.034846875 -0.00261666666667 -0.000590625 0.304856
55 1 -0.034846875 -0.00261666666667 0.000590625 0.291384
56 1 -0.034846875 -0.00261666666667 0.001771875 0.299455
57 1 -0.034846875 -0.00261666666667 0.002953125 0.28307
58 1 -0.034846875 -0.00261666666667 0.004134375 0.287515
59 1 -0.034846875 -0.00261666666667 0.005315625 0.267558
60 1 -0.034846875 -0.00261666666667 0.006496875 0.272354
61 1 -0.034846875 -0.00261666666667 0.007678125 0.246693
62 1 -0.034846875 -0.00261666666667 0.008859375 0.255848
63 1 -0.034846875 -0.00261666666667 0.010040625 0.224131
64 1 -0.034846875 -0.00261666666667 0.011221875 0.240366
65 1 -0.034846875 -0.00125 -0.011221875 0.26466
66 1 -0.034846875 -0.00125 -0.010040625 0.306196
67 1 -0.034846875 -0.00125 -0.008859375 0.278321
68 1 -0.034846875 -0.00125 -0.007678125 0.310289
69 1 -0.034846875 -0.00125 -0.006496875 0.286579
70 1 -0.034846875 -0.00125 -0.005315625 0.309918
71 1 -0.034846875 -0.00125 -0.004134375 0.291777
72 1 -0.034846875 -0.00125 -0.002953125 0.30844
73 1 -0.034846875 -0.00125 -0.001771875 0.29386
74 1 -0.034846875 -0.00125 -0.000590625 0.304856
75 1 -0.034846875 -0.00125 0.000590625 0.291384
76 1 -0.034846875 -0.00125 0.001771875 0.299455
77 1 -0.034846875 -0.00125 0.002953125 0.28307
78 1 -0.034846875 -0.00125 0.004134375 0.287515
79 1 -0.034846875 -0.00125 0.005315625 0.267558
80 1 -0.034846875 -0.00125 0.006496875 0.272354
81 1 -0.034846875 -0.00125 0.007678125 0.246693
82 1 -0.034846875 -0.00125 0.008859375 0.255848
83 1 -0.034846875 -0.00125 0.010040625 0.224131
84 1 -0.034846875 -0.00125 0.011221875 0.240366
85 1 -0.034846875 0.000116666666667 -0.011221875 0.26466
86 1 -0.034846875 0.000116666666667 -0.010040625 0.306196
87 1 -0.034846875 0.000116666666667 -0.008859375 0.278321
88 1 -0.034846875 0.000116666666667 -0.007678125 0.310289
89 1 -0.034846875 0.000116666666667 -0.006496875 0.286579
90 1 -0.034846875 0.000116666666667 -0.005315625 0.309918
91 1 -0.034846875 0.000116666666667 -0.004134375 0.291777
92 1 -0.034846875 0.000116666666667 -0.002953125 0.30844
93 1 -0.034846875 0.000116666666667 -0.001771875 0.29386
94 1 -0.034846875 0.000116666666667 -0.000590625 0.304856
95 1 -0.034846875 0.000116666666667 0.000590625 0.291384
96 1 -0.034846875 0.000116666666667 0.001771875 0.299455
97 1 -0.034846875 0.000116666666667 0.002953125 0.28307
98 1 -0.034846875 0.000116666666667 0.004134375 0.287515
99 1 -0.034846875 0.000116666666667 0.005315625 0.267558
100 1 -0.034846875 0.000116666666667 0.006496875 0.272354
101 1 -0.034846875 0.000116666666667 0.007678125 0.246693
102 1 -0.034846875 0.000116666666667 0.008859375 0.255848
103 1 -0.034846875 0.000116666666667 0.010040625 0.224131
104 1 -0.034846875 0.000116666666667 0.011221875 0.240366
105 1 -0.033665625 -0.00261666666667 -0.013584375 0.314893
106 1 -0.033665625 -0.00261666666667 -0.012403125 0.407381
107 1 -0.033665625 -0.00261666666667 -0.011221875 0.338439
108 1 -0.033665625 -0.00261666666667 -0.010040625 0.427638
109 1 -0.033665625 -0.00261666666667 -0.008859375 0.35406
110 1 -0.033665625 -0.00261666666667 -0.007678125 0.438118
111 1 -0.033665625 -0.00261666666667 -0.006496875 0.36367
112 1 -0.033665625 -0.00261666666667 -0.005315625 0.444277
113 1 -0.033665625 -0.00261666666667 -0.004134375 0.367564
114 1 -0.033665625 -0.00261666666667 -0.002953125 0.444307
115 1 -0.033665625 -0.00261666666667 -0.001771875 0.368217
116 1 -0.033665625 -0.00261666666667 -0.000590625 0.441514
117 1 -0.033665625 -0.00261666666667 0.000590625 0.363321
118 1 -0.033665625 -0.00261666666667 0.001771875 0.432155
119 1 -0.033665625 -0.00261666666667 0.002953125 0.352308
120 1 -0.033665625 -0.00261666666667 0.004134375 0.416019
121 1 -0.033665625 -0.00261666666667 0.005315625 0.332482
122 1 -0.033665625 -0.00261666666667 0.006496875 0.391419
123 1 -0.033665625 -0.00261666666667 0.007678125 0.307379
124 1 -0.033665625 -0.00261666666667 0.008859375 0.364538
125 1 -0.033665625 -0.00261666666667 0.010040625 0.280463
126 1 -0.033665625 -0.00261666666667 0.011221875 0.335504
127 1 -0.033665625 -0.00261666666667 0.012403125 0.253683
128 1 -0.033665625 -0.00261666666667 0.013584375 0.308385
129 1 -0.033665625 -0.00125 -0.013584375 0.314893
130 1 -0.033665625 -0.00125 -0.012403125 0.407381
131 1 -0.033665625 -0.00125 -0.011221875 0.338439
132 1 -0.033665625 -0.00125 -0.010040625 0.427638
133 1 -0.033665625 -0.00125 -0.008859375 0.35406
134 1 -0.033665625 -0.00125 -0.007678125 0.438118
135 1 -0.033665625 -0.00125 -0.006496875 0.36367
136 1 -0.033665625 -0.00125 -0.005315625 0.444277
137 1 -0.033665625 -0.00125 -0.004134375 0.367564
138 1 -0.033665625 -0.00125 -0.002953125 0.444307
139 1 -0.033665625 -0.00125 -0.001771875 0.368217
140 1 -0.033665625 -0.00125 -0.000590625 0.441514
141 1 -0.033665625 -0.00125 0.000590625 0.363321
142 1 -0.033665625 -0.00125 0.001771875 0.432155
143 1 -0.033665625 -0.00125 0.002953125 0.352308
144 1 -0.033665625 -0.00125 0.004134375 0.416019
145 1 -0.033665625 -0.00125 0.005315625 0.332482
146 1 -0.033665625 -0.00125 0.006496875 0.391419
147 1 -0.033665625 -0.00125 0.007678125 0.307379
148 1 -0.033665625 -0.00125 0.008859375 0.364538
149 1 -0.033665625 -0.00125 0.010040625 0.280463
150 1 -0.033665625 -0.00125 0.011221875 0.335504
151 1 -0.033665625 -0.00125 0.012403125 0.253683
152 1 -0.033665625 -0.00125 0.013584375 0.308385
153 1 -0.033665625 0.000116666666667 -0.013584375 0.314893
154 1 -0.033665625 0.000116666666667 -0.012403125 0.407381
155 1 -0.033665625 0.000116666666667 -0.011221875 0.338439
156 1 -0.033665625 0.000116666666667 -0.010040625 0.427638
157 1 -0.033665625 0.000116666666667 -0.008859375 0.35406
158 1 -0.033665625 0.000116666666667 -0.007678125 0.438118
159 1 -0.033665625 0.000116666666667 -0.006496875 0.36367
160 1 -0.033665625 0.000116666666667 -0.005315625 0.444277
161 1 -0.033665625 0.000116666666667 -0.004134375 0.367564
162 1 -0.033665625 0.000116666666667 -0.002953125 0.444307
163 1 -0.033665625 0.000116666666667 -0.001771875 0.368217
164 1 -0.033665625 0.000116666666667 -0.000590625 0.441514
165 1 -0.033665625 0.000116666666667 0.000590625 0.363321
166 1 -0.033665625 0.000116666666667 0.001771875 0.432155
167 1 -0.033665625 0.000116666666667 0.002953125 0.352308
168 1 -0.033665625 0.000116666666667 0.004134375 0.416019
169 1 -0.033665625 0.000116666666667 0.005315625 0.332482
170 1 -0.033665625 0.000116666666667 0.006496875 0.391419
171 1 -0.033665625 0.000116666666667 0.007678125 0.307379
172 1 -0.033665625 0.000116666666667 0.008859375 0.364538
173 1 -0.033665625 0.000116666666667 0.010040625 0.280463
174 1 -0.033665625 0.000116666666667 0.011221875 0.335504
175 1 -0.033665625 0.000116666666667 0.012403125 0.253683
176 1 -0.033665625 0.000116666666667 0.013584375 0.308385
177 1 -0.032484375 -0.00261666666667 -0.018309375 0.206898
178 1 -0.032484375 -0.00261666666667 -0.017128125 0.281153
179 1 -0.032484375 -0.00261666666667 -0.015946875 0.243799
180 1 -0.032484375 -0.00261666666667 -0.014765625 0.309059
181 1 -0.032484375 -0.00261666666667 -0.013584375 0.282924
182 1 -0.032484375 -0.00261666666667 -0.012403125 0.333709
183 1 -0.032484375 -0.00261666666667 -0.011221875 0.315416
184 1 -0.032484375 -0.00261666666667 -0.010040625 0.34896
185 1 -0.032484375 -0.00261666666667 -0.008859375 0.337659
186 1 -0.032484375 -0.00261666666667 -0.007678125 0.35777
187 1 -0.032484375 -0.00261666666667 -0.006496875 0.350281
188 1 -0.032484375 -0.00261666666667 -0.005315625 0.358832
189 1 -0.032484375 -0.00261666666667 -0.004134375 0.358704
190 1 -0.032484375 -0.00261666666667 -0.002953125 0.357708
191 1 -0.032484375 -0.00261666666667 -0.001771875 0.362221
192 1 -0.032484375 -0.00261666666667 -0.000590625 0.35289
193 1 -0.032484375 -0.00261666666667 0.000590625 0.359226
194 1 -0.032484375 -0.00261666666667 0.001771875 0.344509
195 1 -0.032484375 -0.00261666666667 0.002953125 0.348318
196 1 -0.032484375 -0.00261666666667 0.004134375 0.326745
197 1 -0.032484375 -0.00261666666667 0.005315625 0.326292
198 1 -0.032484375 -0.00261666666667 0.006496875 0.304072
199 1 -0.032484375 -0.00261666666667 0.007678125 0.294529
200 1 -0.032484375 -0.00261666666667 0.008859375 0.279025
201 1 -0.032484375 -0.00261666666667 0.010040625 0.259435
202 1 -0.032484375 -0.00261666666667 0.011221875 0.255111
203 1 -0.032484375 -0.00261666666667 0.012403125 0.225417
204 1 -0.032484375 -0.00261666666667 0.013584375 0.232898
205 1 -0.032484375 -0.00261666666667 0.014765625 0.193892
206 1 -0.032484375 -0.00261666666667 0.015946875 0.212992
207 1 -0.032484375 -0.00261666666667 0.017128125 0.168984
208 1 -0.032484375 -0.00261666666667 0.018309375 0.19964
209 1 -0.032484375 -0.00125 -0.018309375 0.206898
210 1 -0.032484375 -0.00125 -0.017128125 0.281153
211 1 -0.032484375 -0.00125 -0.015946875 0.243799
212 1 -0.032484375 -0.00125 -0.014765625 0.309059
213 1 -0.032484375 -0.00125 -0.013584375 0.282924
214 1 -0.032484375 -0.00125 -0.012403125 0.333709
215 1 -0.032484375 -0.00125 -0.011221875 0.315416
216 1 -0.032484375 -0.00125 -0.010040625 0.34896
217 1 -0.032484375 -0.00125 -0.008859375 0.337659
218 1 -0.032484375 -0.00125 -0.007678125 0.35777
219 1 -0.032484375 -0.00125 -0.006496875 0.350281
220 1 -0.032484375 -0.00125 -0.005315625 0.358832
221 1 -0.032484375 -0.00125 -0.004134375 0.358704
222 1 -0.032484375 -0.00125 -0.002953125 0.357708
223 1 -0.032484375 -0.00125 -0.001771875 0.362221
224 1 -0.032484375 -0.00125 -0.000590625 0.35289
225 1 -0.032484375 -0.00125 0.000590625 0.359226
226 1 -0.032484375 -0.00125 0.001771875 0.344509
227 1 -0.032484375 -0.00125 0.002953125 0.348318
228 1 -0.032484375 -0.00125 0.004134375 0.326745
229 1 -0.032484375 -0.00125 0.005315625 0.326292
230 1 -0.032484375 -0.00125 0.006496875 0.304072
231 1 -0.032484375 -0.00125 0.007678125 0.294529
232 1 -0.032484375 -0.00125 0.008859375 0.279025
233 1 -0.032484375 -0.00125 0.010040625 0.259435
234 1 -0.032484375 -0.00125 0.011221875 0.255111
235 1 -0.032484375 -0.00125 0.012403125 0.225417
236 1 -0.032484375 -0.00125 0.013584375 0.232898
237 1 -0.032484375 -0.00125 0.014765625 0.193892
238 1 -0.032484375 -0.00125 0.015946875 0.212992
239 1 -0.032484375 -0.00125 0.017128125 0.168984
240 1 -0.032484375 -0.00125 0.018309375 0.19964
241 1 -0.032484375 0.000116666666667 -0.018309375 0.206898
242 1 -0.032484375 0.000116666666667 -0.017128125 0.281153
243 1 -0.032484375 0.000116666666667 -0.015946875 0.243799
244 1 -0.032484375 0.000116666666667 -0.014765625 0.309059
245 1 -0.032484375 0.000116666666667 -0.013584375 0.282924
246 1 -0.032484375 0.000116666666667 -0.012403125 0.333709
247 1 -0.032484375 0.000116666666667 -0.011221875 0.315416
248 1 -0.032484375 0.000116666666667 -0.010040625 0.34896
249 1 -0.032484375 0.000116666666667 -0.008859375 0.337659
250 1 -0.032484375 0.000116666666667 -0.007678125 0.35777
251 1 -0.032484375 0.000116666666667 -0.006496875 0.350281
252 1 -0.032484375 0.000116666666667 -0.005315625 0.358832
253 1 -0.032484375 0.000116666666667 -0.004134375 0.358704
254 1 -0.032484375 0.000116666666667 -0.002953125 0.357708
255 1 -0.032484375 0.000116666666667 -0.001771875 0.362221
256 1 -0.032484375 0.000116666666667 -0.000590625 0.35289
257 1 -0.032484375 0.000116666666667 0.000590625 0.359226
258 1 -0.032484375 0.000116666666667 0.001771875 0.344509
259 1 -0.032484375 0.000116666666667 0.002953125 0.348318
260 1 -0.032484375 0.000116666666667 0.004134375 0.326745
261 1 -0.032484375 0.000116666666667 0.005315625 0.326292
262 1 -0.032484375 0.000116666666667 0.006496875 0.304072
263 1 -0.032484375 0.000116666666667 0.007678125 0.294529
264 1 -0.032484375 0.000116666666667 0.008859375 0.279025
265 1 -0.032484375 0.000116666666667 0.010040625 0.259435
266 1 -0.032484375 0.000116666666667 0.011221875 0.255111
267 1 -0.032484375 0.000116666666667 0.012403125 0.225417
268 1 -0.032484375 0.000116666666667 0.013584375 0.232898
269 1 -0.032484375 0.000116666666667 0.014765625 0.193892
270 1 -0.032484375 0.000116666666667 0.015946875 0.212992
271 1 -0.032484375 0.000116666666667 0.017128125 0.168984
272 1 -0.032484375 0.000116666666667 0.018309375 0.19964
273 1 -0.031303125 -0.00261666666667 -0.019490625 0.346606
274 1 -0.031303125 -0.00261666666667 -0.018309375 0.312104
275 1 -0.031303125 -0.00261666666667 -0.017128125 0.388234
276 1 -0.031303125 -0.00261666666667 -0.015946875 0.358445
277 1 -0.031303125 -0.00261666666667 -0.014765625 0.430861
278 1 -0.031303125 -0.00261666666667 -0.013584375 0.398968
279 1 -0.031303125 -0.00261666666667 -0.012403125 0.464522
280 1 -0.031303125 -0.00261666666667 -0.011221875 0.431757
281 1 -0.031303125 -0.00261666666667 -0.010040625 0.48991
282 1 -0.031303125 -0.00261666666667 -0.008859375 0.450441
283 1 -0.031303125 -0.00261666666667 -0.007678125 0.502954
284 1 -0.031303125 -0.00261666666667 -0.006496875 0.461655
285 1 -0.031303125 -0.00261666666667 -0.005315625 0.510905
286 1 -0.031303125 -0.00261666666667 -0.004134375 0.46529
287 1 -0.031303125 -0.00261666666667 -0.002953125 0.511304
288 1 -0.031303125 -0.00261666666667 -0.001771875 0.466516
289 1 -0.031303125 -0.00261666666667 -0.000590625 0.508388
290 1 -0.031303125 -0.00261666666667 0.000590625 0.461975
291 1 -0.031303125 -0.00261666666667 0.001771875 0.497526
292 1 -0.031303125 -0.00261666666667 0.002953125 0.451864
293 1 -0.031303125 -0.00261666666667 0.004134375 0.479092
294 1 -0.031303125 -0.00261666666667 0.005315625 0.428411
295 1 -0.031303125 -0.00261666666667 0.006496875 0.45024
296 1 -0.031303125 -0.00261666666667 0.007678125 0.39531
297 1 -0.031303125 -0.00261666666667 0.008859375 0.41778
298 1 -0.031303125 -0.00261666666667 0.010040625 0.357292
299 1 -0.031303125 -0.00261666666667 0.011221875 0.381639
300 1 -0.031303125 -0.00261666666667 0.012403125 0.317646
301 1 -0.031303125 -0.00261666666667 0.013584375 0.346097
302 1 -0.031303125 -0.00261666666667 0.014765625 0.280144
303 1 -0.031303125 -0.00261666666667 0.015946875 0.313127
304 1 -0.031303125 -0.00261666666667 0.017128125 0.249449
305 1 -0.031303125 -0.00261666666667 0.018309375 0.28788
306 1 -0.031303125 -0.00261666666667 0.019490625 0.229098
307 1 -0.031303125 -0.00125 -0.019490625 0.346606
308 1 -0.031303125 -0.00125 -0.018309375 0.312104
309 1 -0.031303125 -0.00125 -0.017128125 0.388234
310 1 -0.031303125 -0.00125 -0.015946875 0.358445
311 1 -0.031303125 -0.00125 -0.014765625 0.430861
312 1 -0.031303125 -0.00125 -0.013584375 0.398968
313 1 -0.031303125 -0.00125 -0.012403125 0.464522
314 1 -0.031303125 -0.00125 -0.011221875 0.431757
315 1 -0.031303125 -0.00125 -0.010040625 0.48991
316 1 -0.031303125 -0.00125 -0.008859375 0.450441
317 1 -0.031303125 -0.00125 -0.007678125 0.502954
318 1 -0.031303125 -0.00125 -0.006496875 0.461655
319 1 -0.031303125 -0.00125 -0.005315625 0.510905
320 1 -0.031303125 -0.00125 -0.004134375 0.46529
321 1 -0.031303125 -0.00125 -0.002953125 0.511304
322 1 -0.031303125 -0.00125 -0.001771875 0.466516
323 1 -0.031303125 -0.00125 -0.000590625 0.508388
324 1 -0.031303125 -0.00125 0.000590625 0.461975
325 1 -0.031303125 -0.00125 0.001771875 0.497526
326 1 -0.031303125 -0.00125 0.002953125 0.451864
327 1 -0.031303125 -0.00125 0.004134375 0.479092
328 1 -0.031303125 -0.00125 0.005315625 0.428411
329 1 -0.031303125 -0.00125 0.006496875 0.45024
330 1 -0.031303125 -0.00125 0.007678125 0.39531
331 1 -0.031303125 -0.00125 0.008859375 0.41778
332 1 -0.031303125 -0.00125 0.010040625 0.357292
333 1 -0.031303125 -0.00125 0.011221875 0.381639
334 1 -0.031303125 -0.00125 0.012403125 0.317646
335 1 -0.031303125 -0.00125 0.013584375 0.346097
336 1 -0.031303125 -0.00125 0.014765625 0.280144
337 1 -0.031303125 -0.00125 0.015946875 0.313127
338 1 -0.031303125 -0.00125 0.017128125 0.249449
339 1 -0.031303125 -0.00125 0.018309375 0.28788
340 1 -0.031303125 -0.00125 0.019490625 0.229098
341 1 -0.031303125 0.000116666666667 -0.019490625 0.346606
342 1 -0.031303125 0.000116666666667 -0.018309375 0.312104
343 1 -0.031303125 0.000116666666667 -0.017128125 0.388234
344 1 -0.031303125 0.000116666666667 -0.015946875 0.358445
345 1 -0.031303125 0.000116666666667 -0.014765625 0.430861
346 1 -0.031303125 0.000116666666667 -0.013584375 0.398968
347 1 -0.031303125 0.000116666666667 -0.012403125 0.464522
348 1 -0.031303125 0.000116666666667 -0.011221875 0.431757
349 1 -0.031303125 0.000116666666667 -0.010040625 0.48991
350 1 -0.031303125 0.000116666666667 -0.008859375 0.450441
351 1 -0.031303125 0.000116666666667 -0.007678125 0.502954
352 1 -0.031303125 0.000116666666667 -0.006496875 0.461655
353 1 -0.031303125 0.000116666666667 -0.005315625 0.510905
354 1 -0.031303125 0.000116666666667 -0.004134375 0.46529
355 1 -0.031303125 0.000116666666667 -0.002953125 0.511304
356 1 -0.031303125 0.000116666666667 -0.001771875 0.466516
357 1 -0.031303125 0.000116666666667 -0.000590625 0.508388
358 1 -0.031303125 0.000116666666667 0.000590625 0.461975
359 1 -0.031303125 0.000116666666667 0.001771875 0.497526
360 1 -0.031303125 0.000116666666667 0.002953125 0.451864
361 1 -0.031303125 0.000116666666667 0.004134375 0.479092
362 1 -0.031303125 0.000116666666667 0.005315625 0.428411
363 1 -0.031303125 0.000116666666667 0.006496875 0.45024
364 1 -0.031303125 0.000116666666667 0.007678125 0.39531
365 1 -0.031303125 0.000116666666667 0.008859375 0.41778
366 1 -0.031303125 0.000116666666667 0.010040625 0.357292
367 1 -0.031303125 0.000116666666667 0.011221875 0.381639
368 1 -0.031303125 0.000116666666667 0.012403125 0.317646
369 1 -0.031303125 0.000116666666667 0.013584375 0.346097
370 1 -0.031303125 0.000116666666667 0.014765625 0.280144
371 1 -0.031303125 0.000116666666667 0.015946875 0.313127
372 1 -0.031303125 0.000116666666667 0.017128125 0.249449
373 1 -0.031303125 0.000116666666667 0.018309375 0.28788
374 1 -0.031303125 0.000116666666667 0.019490625 0.229098
375 1 -0.030121875 -0.00261666666667 -0.020671875 0.227373
376 1 -0.030121875 -0.00261666666667 -0.019490625 0.304669
377 1 -0.030121875 -0.00261666666667 -0.018309375 0.274233
378 1 -0.030121875 -0.00261666666667 -0.017128125 0.345639
379 1 -0.030121875 -0.00261666666667 -0.015946875 0.327094
380 1 -0.030121875 -0.00261666666667 -0.014765625 0.38471
381 1 -0.030121875 -0.00261666666667 -0.013584375 0.379779
382 1 -0.030121875 -0.00261666666667 -0.012403125 0.418967
383 1 -0.030121875 -0.00261666666667 -0.011221875 0.422243
384 1 -0.030121875 -0.00261666666667 -0.010040625 0.440019
385 1 -0.030121875 -0.00261666666667 -0.008859375 0.451687
386 1 -0.030121875 -0.00261666666667 -0.007678125 0.450029
387 1 -0.030121875 -0.00261666666667 -0.006496875 0.467845
388 1 -0.030121875 -0.00261666666667 -0.005315625 0.451467
389 1 -0.030121875 -0.00261666666667 -0.004134375 0.47776
390 1 -0.030121875 -0.00261666666667 -0.002953125 0.450216
391 1 -0.030121875 -0.00261666666667 -0.001771875 0.481858
392 1 -0.030121875 -0.00261666666667 -0.000590625 0.444566
393 1 -0.030121875 -0.00261666666667 0.000590625 0.479202
394 1 -0.030121875 -0.00261666666667 0.001771875 0.434817
395 1 -0.030121875 -0.00261666666667 0.002953125 0.467866
396 1 -0.030121875 -0.00261666666667 0.004134375 0.414244
397 1 -0.030121875 -0.00261666666667 0.005315625 0.444388
398 1 -0.030121875 -0.00261666666667 0.006496875 0.384786
399 1 -0.030121875 -0.00261666666667 0.007678125 0.407049
400 1 -0.030121875 -0.00261666666667 0.008859375 0.351822
401 1 -0.030121875 -0.00261666666667 0.010040625 0.362491
402 1 -0.030121875 -0.00261666666667 0.011221875 0.319345
403 1 -0.030121875 -0.00261666666667 0.012403125 0.316633
404 1 -0.030121875 -0.00261666666667 0.013584375 0.289011
405 1 -0.030121875 -0.00261666666667 0.014765625 0.26946
406 1 -0.030121875 -0.00261666666667 0.015946875 0.261279
407 1 -0.030121875 -0.00261666666667 0.017128125 0.230789
408 1 -0.030121875 -0.00261666666667 0.018309375 0.241307
409 1 -0.030121875 -0.00261666666667 0.019490625 0.2036
410 1 -0.030121875 -0.00261666666667 0.020671875 0.228818
411 1 -0.030121875 -0.00125 -0.020671875 0.227373
412 1 -0.030121875 -0.00125 -0.019490625 0.304669
413 1 -0.030121875 -0.00125 -0.018309375 0.274233
414 1 -0.030121875 -0.00125 -0.017128125 0.345639
415 1 -0.030121875 -0.00125 -0.015946875 0.327094
416 1 -0.030121875 -0.00125 -0.014765625 0.38471
417 1 -0.030121875 -0.00125 -0.013584375 0.379779
418 1 -0.030121875 -0.00125 -0.012403125 0.418967
419 1 -0.030121875 -0.00125 -0.011221875 0.422243
420 1 -0.030121875 -0.00125 -0.010040625 0.440019
421 1 -0.030121875 -0.00125 -0.008859375 0.451687
422 1 -0.030121875 -0.00125 -0.007678125 0.450029
423 1 -0.030121875 -0.00125 -0.006496875 0.467845
424 1 -0.030121875 -0.00125 -0.005315625 0.451467
425 1 -0.030121875 -0.00125 -0.004134375 0.47776
426 1 -0.030121875 -0.00125 -0.002953125 0.450216
427 1 -0.030121875 -0.00125 -0.001771875 0.481858
428 1 -0.030121875 -0.00125 -0.000590625 0.444566
429 1 -0.030121875 -0.00125 0.000590625 0.479202
430 1 -0.030121875 -0.00125 0.001771875 0.434817
431 1 -0.030121875 -0.00125 0.002953125 0.467866
432 1 -0.030121875 -0.00125 0.004134375 0.414244
433 1 -0.030121875 -0.00125 0.005315625 0.444388
434 1 -0.030121875 -0.00125 0.006496875 0.384786
435 1 -0.030121875 -0.00125 0.007678125 0.407049
436 1 -0.030121875 -0.00125 0.008859375 0.351822
437 1 -0.030121875 -0.00125 0.010040625 0.362491
438 1 -0.030121875 -0.00125 0.011221875 0.319345
439 1 -0.030121875 -0.00125 0.012403125 0.316633
440 1 -0.030121875 -0.00125 0.013584375 0.289011
441 1 -0.030121875 -0.00125 0.014765625 0.26946
442 1 -0.030121875 -0.00125 0.015946875 0.261279
443 1 -0.030121875 -0.00125 0.017128125 0.230789
444 1 -0.030121875 -0.00125 0.018309375 0.241307
445 1 -0.030121875 -0.00125 0.019490625 0.2036
446 1 -0.030121875 -0.00125 0.020671875 0.228818
447 1 -0.030121875 0.000116666666667 -0.020671875 0.227373
448 1 -0.030121875 0.000116666666667 -0.019490625 0.304669
449 1 -0.030121875 0.000116666666667 -0.018309375 0.274233
450 1 -0.030121875 0.000116666666667 -0.017128125 0.345639
451 1 -0.030121875 0.000116666666667 -0.015946875 0.327094
452 1 -0.030121875 0.000116666666667 -0.014765625 0.38471
453 1 -0.030121875 0.000116666666667 -0.013584375 0.379779
454 1 -0.030121875 0.000116666666667 -0.012403125 0.418967
455 1 -0.030121875 0.000116666666667 -0.011221875 0.422243
456 1 -0.030121875 0.000116666666667 -0.010040625 0.440019
457 1 -0.030121875 0.000116666666667 -0.008859375 0.451687
458 1 -0.030121875 0.000116666666667 -0.007678125 0.450029
459 1 -0.030121875 0.000116666666667 -0.006496875 0.467845
460 1 -0.030121875 0.000116666666667 -0.005315625 0.451467
461 1 -0.030121875 0.000116666666667 -0.004134375 0.47776
462 1 -0.030121875 0.000116666666667 -0.002953125 0.450216
463 1 -0.030121875 0.000116666666667 -0.001771875 0.481858
464 1 -0.030121875 0.000116666666667 -0.000590625 0.444566
465 1 -0.030121875 0.000116666666667 0.000590625 0.479202
466 1 -0.030121875 0.000116666666667 0.001771875 0.434817
467 1 -0.030121875 0.000116666666667 0.002953125 0.467866
468 1 -0.030121875 0.000116666666667 0.004134375 0.414244
469 1 -0.030121875 0.000116666666667 0.005315625 0.444388
470 1 -0.030121875 0.000116666666667 0.006496875 0.384786
471 1 -0.030121875 0.000116666666667 0.007678125 0.407049
472 1 -0.030121875 0.000116666666667 0.008859375 0.351822
473 1 -0.030121875 0.000116666666667 0.010040625 0.362491
474 1 -0.030121875 0.000116666666667 0.011221875 0.319345
475 1 -0.030121875 0.000116666666667 0.012403125 0.316633
476 1 -0.030121875 0.000116666666667 0.013584375 0.289011
477 1 -0.030121875 0.000116666666667 0.014765625 0.26946
478 1 -0.030121875 0.000116666666667 0.015946875 0.261279
479 1 -0.030121875 0.000116666666667 0.017128125 0.230789
480 1 -0.030121875 0.000116666666667 0.018309375 0.241307
481 1 -0.030121875 0.000116666666667 0.019490625 0.2036
482 1 -0.030121875 0.000116666666667 0.020671875 0.228818
483 1 -0.028940625 -0.00261666666667 -0.021853125 0.365962
484 1 -0.028940625 -0.00261666666667 -0.020671875 0.348215
485 1 -0.028940625 -0.00261666666667 -0.019490625 0.415982
486 1 -0.028940625 -0.00261666666667 -0.018309375 0.404952
487 1 -0.028940625 -0.00261666666667 -0.017128125 0.467492
488 1 -0.028940625 -0.00261666666667 -0.015946875 0.456281
489 1 -0.028940625 -0.00261666666667 -0.014765625 0.515114
490 1 -0.028940625 -0.00261666666667 -0.013584375 0.493011
491 1 -0.028940625 -0.00261666666667 -0.012403125 0.54868
492 1 -0.028940625 -0.00261666666667 -0.011221875 0.522422
493 1 -0.028940625 -0.00261666666667 -0.010040625 0.57319
494 1 -0.028940625 -0.00261666666667 -0.008859375 0.539525
495 1 -0.028940625 -0.00261666666667 -0.007678125 0.586509
496 1 -0.028940625 -0.00261666666667 -0.006496875 0.550457
497 1 -0.028940625 -0.00261666666667 -0.005315625 0.594456
498 1 -0.028940625 -0.00261666666667 -0.004134375 0.554037
499 1 -0.028940625 -0.00261666666667 -0.002953125 0.594372
500 1 -0.028940625 -0.00261666666667 -0.001771875 0.555105
501 1 -0.028940625 -0.00261666666667 -0.000590625 0.590794
502 1 -0.028940625 -0.00261666666667 0.000590625 0.549955
503 1 -0.028940625 -0.00261666666667 0.001771875 0.579685
504 1 -0.028940625 -0.00261666666667 0.002953125 0.539678
505 1 -0.028940625 -0.00261666666667 0.004134375 0.561493
506 1 -0.028940625 -0.00261666666667 0.005315625 0.519971
507 1 -0.028940625 -0.00261666666667 0.006496875 0.5348
508 1 -0.028940625 -0.00261666666667 0.007678125 0.494059
509 1 -0.028940625 -0.00261666666667 0.008859375 0.5043
510 1 -0.028940625 -0.00261666666667 0.010040625 0.462429
511 1 -0.028940625 -0.00261666666667 0.011221875 0.465907
512 1 -0.028940625 -0.00261666666667 0.012403125 0.422276
513 1 -0.028940625 -0.00261666666667 0.013584375 0.426112
514 1 -0.028940625 -0.00261666666667 0.014765625 0.379153
515 1 -0.028940625 -0.00261666666667 0.015946875 0.387217
516 1 -0.028940625 -0.00261666666667 0.017128125 0.339183
517 1 -0.028940625 -0.00261666666667 0.018309375 0.355604
518 1 -0.028940625 -0.00261666666667 0.019490625 0.309153
519 1 -0.028940625 -0.00261666666667 0.020671875 0.334842
520 1 -0.028940625 -0.00261666666667 0.021853125 0.289065
521 1 -0.028940625 -0.00125 -0.021853125 0.365962
522 1 -0.028940625 -0.00125 -0.020671875 0.348215
523 1 -0.028940625 -0.00125 -0.019490625 0.415982
524 1 -0.028940625 -0.00125 -0.018309375 0.404952
525 1 -0.028940625 -0.00125 -0.017128125 0.467492
526 1 -0.028940625 -0.00125 -0.015946875 0.456281
527 1 -0.028940625 -0.00125 -0.014765625 0.515114
528 1 -0.028940625 -0.00125 -0.013584375 0.493011
529 1 -0.028940625 -0.00125 -0.012403125 0.54868
530 1 -0.028940625 -0.00125 -0.011221875 0.522422
531 1 -0.028940625 -0.00125 -0.010040625 0.57319
532 1 -0.028940625 -0.00125 -0.008859375 0.539525
533 1 -0.028940625 -0.00125 -0.007678125 0.586509
534 1 -0.028940625 -0.00125 -0.006496875 0.550457
535 1 -0.028940625 -0.00125 -0.005315625 0.594456
536 1 -0.028940625 -0.00125 -0.004134375 0.554037
537 1 -0.028940625 -0.00125 -0.002953125 0.594372
538 1 -0.028940625 -0.00125 -0.001771875 0.555105