ITEM: TIMESTEP
0
ITEM: NUMBER OF ATOMS
9240
ITEM: BOX BOUNDS ss ss ss
-3.7007399999999996e-02 3.7007399999999996e-02
-2.0002499999999999e-03 2.5000000000000004e-07
-3.7007399999999996e-02 3.7007399999999996e-02
ITEM: ATOMS id type x y z c_1
0 1 -0.037209375 -0.00261666666667 -0.000590625 0.333255
1 1 -0.037209375 -0.00125 -0.000590625 0.333255
2 1 -0.037209375 0.000116666666667 -0.000590625 0.333255
3 1 -0.036028125 -0.00261666666667 -0.007678125 0.225726
4 1 -0.036028125 -0.00261666666667 -0.006496875 0.132675
5 1 -0.036028125 -0.00261666666667 -0.005315625 0.238782
6 1 -0.036028125 -0.00261666666667 -0.004134375 0.145524
7 1 -0.036028125 -0.00261666666667 -0.002953125 0.251908
8 1 -0.036028125 -0.00261666666667 -0.001771875 0.159868
9 1 -0.036028125 -0.00261666666667 -0.000590625 0.266857
10 1 -0.036028125 -0.00261666666667 0.000590625 0.17352
11 1 -0.036028125 -0.00261666666667 0.001771875 0.278941
12 1 -0.036028125 -0.00261666666667 0.002953125 0.182446
13 1 -0.036028125 -0.00261666666667 0.004134375 0.282857
14 1 -0.036028125 -0.00261666666667 0.005315625 0.181911
15 1 -0.036028125 -0.00261666666667 0.006496875 0.275882
16 1 -0.036028125 -0.00261666666667 0.007678125 0.171943
17 1 -0.036028125 -0.00125 -0.007678125 0.225726
18 1 -0.036028125 -0.00125 -0.006496875 0.132675
19 1 -0.036028125 -0.00125 -0.005315625 0.238782
20 1 -0.036028125 -0.00125 -0.004134375 0.145524
21 1 -0.036028125 -0.00125 -0.002953125 0.251908
22 1 -0.036028125 -0.00125 -0.001771875 0.159868
23 1 -0.036028125 -0.00125 -0.000590625 0.266857
24 1 -0.036028125 -0.00125 0.000590625 0.17352
25 1 -0.036028125 -0.00125 0.001771875 0.278941
26 1 -0.036028125 -0.00125 0.002953125 0.182446
27 1 -0.036028125 -0.00125 0.004134375 0.282857
28 1 -0.036028125 -0.00125 0.005315625 0.181911
29 1 -0.036028125 -0.00125 0.006496875 0.275882
30 1 -0.036028125 -0.00125 0.007678125 0.171943
31 1 -0.036028125 0.000116666666667 -0.007678125 0.225726
32 1 -0.036028125 0.000116666666667 -0.006496875 0.132675
33 1 -0.036028125 0.000116666666667 -0.005315625 0.238782
34 1 -0.036028125 0.000116666666667 -0.004134375 0.145524
35 1 -0.036028125 0.000116666666667 -0.002953125 0.251908
36 1 -0.036028125 0.000116666666667 -0.001771875 0.159868
37 1 -0.036028125 0.000116666666667 -0.000590625 0.266857
38 1 -0.036028125 0.000116666666667 0.000590625 0.17352
39 1 -0.036028125 0.000116666666667 0.001771875 0.278941
40 1 -0.036028125 0.000116666666667 0.002953125 0.182446
41 1 -0.036028125 0.000116666666667 0.004134375 0.282857
42 1 -0.036028125 0.000116666666667 0.005315625 0.181911
43 1 -0.036028125 0.000116666666667 0.006496875 0.275882
44 1 -0.036028125 0.000116666666667 0.007678125 0.171943
45 1 -0.034846875 -0.00261666666667 -0.011221875 0.113381
46 1 -0.034846875 -0.00261666666667 -0.010040625 0.182487
47 1 -0.034846875 -0.00261666666667 -0.008859375 0.131049
48 1 -0.034846875 -0.00261666666667 -0.007678125 0.197551
49 1 -0.034846875 -0.00261666666667 -0.006496875 0.14619
50 1 -0.034846875 -0.00261666666667 -0.005315625 0.210267
51 1 -0.034846875 -0.00261666666667 -0.004134375 0.162092
52 1 -0.034846875 -0.00261666666667 -0.002953125 0.223624
53 1 -0.034846875 -0.00261666666667 -0.001771875 0.17982
54 1 -0.034846875 -0.00261666666667 -0.000590625 0.237968
55 1 -0.034846875 -0.00261666666667 0.000590625 0.197459
56 1 -0.034846875 -0.00261666666667 0.001771875 0.25021
57 1 -0.034846875 -0.00261666666667 0.002953125 0.209462
58 1 -0.034846875 -0.00261666666667 0.004134375 0.251067
59 1 -0.034846875 -0.00261666666667 0.005315625 0.211569
60 1 -0.034846875 -0.00261666666667 0.006496875 0.242973
61 1 -0.034846875 -0.00261666666667 0.007678125 0.199414
62 1 -0.034846875 -0.00261666666667 0.008859375 0.222481
63 1 -0.034846875 -0.00261666666667 0.010040625 0.177181
64 1 -0.034846875 -0.00261666666667 0.011221875 0.198327
65 1 -0.034846875 -0.00125 -0.011221875 0.113381
66 1 -0.034846875 -0.00125 -0.010040625 0.182487
67 1 -0.034846875 -0.00125 -0.008859375 0.131049
68 1 -0.034846875 -0.00125 -0.007678125 0.197551
69 1 -0.034846875 -0.00125 -0.006496875 0.14619
70 1 -0.034846875 -0.00125 -0.005315625 0.210267
71 1 -0.034846875 -0.00125 -0.004134375 0.162092
72 1 -0.034846875 -0.00125 -0.002953125 0.223624
73 1 -0.034846875 -0.00125 -0.001771875 0.17982
74 1 -0.034846875 -0.00125 -0.000590625 0.237968
75 1 -0.034846875 -0.00125 0.000590625 0.197459
76 1 -0.034846875 -0.00125 0.001771875 0.25021
77 1 -0.034846875 -0.00125 0.002953125 0.209462
78 1 -0.034846875 -0.00125 0.004134375 0.251067
79 1 -0.034846875 -0.00125 0.005315625 0.211569
80 1 -0.034846875 -0.00125 0.006496875 0.242973
81 1 -0.034846875 -0.00125 0.007678125 0.199414
82 1 -0.034846875 -0.00125 0.008859375 0.222481
83 1 -0.034846875 -0.00125 0.010040625 0.177181
84 1 -0.034846875 -0.00125 0.011221875 0.198327
85 1 -0.034846875 0.000116666666667 -0.011221875 0.113381
86 1 -0.034846875 0.000116666666667 -0.010040625 0.182487
87 1 -0.034846875 0.000116666666667 -0.008859375 0.131049
88 1 -0.034846875 0.000116666666667 -0.007678125 0.197551
89 1 -0.034846875 0.000116666666667 -0.006496875 0.14619
90 1 -0.034846875 0.000116666666667 -0.005315625 0.210267
91 1 -0.034846875 0.000116666666667 -0.004134375 0.162092
92 1 -0.034846875 0.000116666666667 -0.002953125 0.223624
93 1 -0.034846875 0.000116666666667 -0.001771875 0.17982
94 1 -0.034846875 0.000116666666667 -0.000590625 0.237968
95 1 -0.034846875 0.000116666666667 0.000590625 0.197459
96 1 -0.034846875 0.000116666666667 0.001771875 0.25021
97 1 -0.034846875 0.000116666666667 0.002953125 0.209462
98 1 -0.034846875 0.000116666666667 0.004134375 0.251067
99 1 -0.034846875 0.000116666666667 0.005315625 0.211569
100 1 -0.034846875 0.000116666666667 0.006496875 0.242973
101 1 -0.034846875 0.000116666666667 0.007678125 0.199414
102 1 -0.034846875 0.000116666666667 0.008859375 0.222481
103 1 -0.034846875 0.000116666666667 0.010040625 0.177181
104 1 -0.034846875 0.000116666666667 0.011221875 0.198327
105 1 -0.033665625 -0.00261666666667 -0.013584375 0.167568
106 1 -0.033665625 -0.00261666666667 -0.012403125 0.274576
107 1 -0.033665625 -0.00261666666667 -0.011221875 0.207522
108 1 -0.033665625 -0.00261666666667 -0.010040625 0.307478
109 1 -0.033665625 -0.00261666666667 -0.008859375 0.240334
110 1 -0.033665625 -0.00261666666667 -0.007678125 0.330026
111 1 -0.033665625 -0.00261666666667 -0.006496875 0.267506
112 1 -0.033665625 -0.00261666666667 -0.005315625 0.349687
113 1 -0.033665625 -0.00261666666667 -0.004134375 0.292152
114 1 -0.033665625 -0.00261666666667 -0.002953125 0.369191
115 1 -0.033665625 -0.00261666666667 -0.001771875 0.319168
116 1 -0.033665625 -0.00261666666667 -0.000590625 0.391145
117 1 -0.033665625 -0.00261666666667 0.000590625 0.343871
118 1 -0.033665625 -0.00261666666667 0.001771875 0.406676
119 1 -0.033665625 -0.00261666666667 0.002953125 0.358508
120 1 -0.033665625 -0.00261666666667 0.004134375 0.410181
121 1 -0.033665625 -0.00261666666667 0.005315625 0.356637
122 1 -0.033665625 -0.00261666666667 0.006496875 0.4008
123 1 -0.033665625 -0.00261666666667 0.007678125 0.336538
124 1 -0.033665625 -0.00261666666667 0.008859375 0.375624
125 1 -0.033665625 -0.00261666666667 0.010040625 0.29948
126 1 -0.033665625 -0.00261666666667 0.011221875 0.333983
127 1 -0.033665625 -0.00261666666667 0.012403125 0.251042
128 1 -0.033665625 -0.00261666666667 0.013584375 0.285306
129 1 -0.033665625 -0.00125 -0.013584375 0.167568
130 1 -0.033665625 -0.00125 -0.012403125 0.274576
131 1 -0.033665625 -0.00125 -0.011221875 0.207522
132 1 -0.033665625 -0.00125 -0.010040625 0.307478
133 1 -0.033665625 -0.00125 -0.008859375 0.240334
134 1 -0.033665625 -0.00125 -0.007678125 0.330026
135 1 -0.033665625 -0.00125 -0.006496875 0.267506
136 1 -0.033665625 -0.00125 -0.005315625 0.349687
137 1 -0.033665625 -0.00125 -0.004134375 0.292152
138 1 -0.033665625 -0.00125 -0.002953125 0.369191
139 1 -0.033665625 -0.00125 -0.001771875 0.319168
140 1 -0.033665625 -0.00125 -0.000590625 0.391145
141 1 -0.033665625 -0.00125 0.000590625 0.343871
142 1 -0.033665625 -0.00125 0.001771875 0.406676
143 1 -0.033665625 -0.00125 0.002953125 0.358508
144 1 -0.033665625 -0.00125 0.004134375 0.410181
145 1 -0.033665625 -0.00125 0.005315625 0.356637
146 1 -0.033665625 -0.00125 0.006496875 0.4008
147 1 -0.033665625 -0.00125 0.007678125 0.336538
148 1 -0.033665625 -0.00125 0.008859375 0.375624
149 1 -0.033665625 -0.00125 0.010040625 0.29948
150 1 -0.033665625 -0.00125 0.011221875 0.333983
151 1 -0.033665625 -0.00125 0.012403125 0.251042
152 1 -0.033665625 -0.00125 0.013584375 0.285306
153 1 -0.033665625 0.000116666666667 -0.013584375 0.167568
154 1 -0.033665625 0.000116666666667 -0.012403125 0.274576
155 1 -0.033665625 0.000116666666667 -0.011221875 0.207522
156 1 -0.033665625 0.000116666666667 -0.010040625 0.307478
157 1 -0.033665625 0.000116666666667 -0.008859375 0.240334
158 1 -0.033665625 0.000116666666667 -0.007678125 0.330026
159 1 -0.033665625 0.000116666666667 -0.006496875 0.267506
160 1 -0.033665625 0.000116666666667 -0.005315625 0.349687
161 1 -0.033665625 0.000116666666667 -0.004134375 0.292152
162 1 -0.033665625 0.000116666666667 -0.002953125 0.369191
163 1 -0.033665625 0.000116666666667 -0.001771875 0.319168
164 1 -0.033665625 0.000116666666667 -0.000590625 0.391145
165 1 -0.033665625 0.000116666666667 0.000590625 0.343871
166 1 -0.033665625 0.000116666666667 0.001771875 0.406676
167 1 -0.033665625 0.000116666666667 0.002953125 0.358508
168 1 -0.033665625 0.000116666666667 0.004134375 0.410181
169 1 -0.033665625 0.000116666666667 0.005315625 0.356637
170 1 -0.033665625 0.000116666666667 0.006496875 0.4008
171 1 -0.033665625 0.000116666666667 0.007678125 0.336538
172 1 -0.033665625 0.000116666666667 0.008859375 0.375624
173 1 -0.033665625 0.000116666666667 0.010040625 0.29948
174 1 -0.033665625 0.000116666666667 0.011221875 0.333983
175 1 -0.033665625 0.000116666666667 0.012403125 0.251042
176 1 -0.033665625 0.000116666666667 0.013584375 0.285306
177 1 -0.032484375 -0.00261666666667 -0.018309375 0.142087
178 1 -0.032484375 -0.00261666666667 -0.017128125 0.194805
179 1 -0.032484375 -0.00261666666667 -0.015946875 0.203014
180 1 -0.032484375 -0.00261666666667 -0.014765625 0.242566
181 1 -0.032484375 -0.00261666666667 -0.013584375 0.269437
182 1 -0.032484375 -0.00261666666667 -0.012403125 0.2891
183 1 -0.032484375 -0.00261666666667 -0.011221875 0.325317
184 1 -0.032484375 -0.00261666666667 -0.010040625 0.319823
185 1 -0.032484375 -0.00261666666667 -0.008859375 0.366991
186 1 -0.032484375 -0.00261666666667 -0.007678125 0.342296
187 1 -0.032484375 -0.00261666666667 -0.006496875 0.395076
188 1 -0.032484375 -0.00261666666667 -0.005315625 0.360126
189 1 -0.032484375 -0.00261666666667 -0.004134375 0.419954
190 1 -0.032484375 -0.00261666666667 -0.002953125 0.379595
191 1 -0.032484375 -0.00261666666667 -0.001771875 0.446178
192 1 -0.032484375 -0.00261666666667 -0.000590625 0.3989
193 1 -0.032484375 -0.00261666666667 0.000590625 0.470836
194 1 -0.032484375 -0.00261666666667 0.001771875 0.412806
195 1 -0.032484375 -0.00261666666667 0.002953125 0.488063
196 1 -0.032484375 -0.00261666666667 0.004134375 0.412883
197 1 -0.032484375 -0.00261666666667 0.005315625 0.492098
198 1 -0.032484375 -0.00261666666667 0.006496875 0.404622
199 1 -0.032484375 -0.00261666666667 0.007678125 0.472972
200 1 -0.032484375 -0.00261666666667 0.008859375 0.373628
201 1 -0.032484375 -0.00261666666667 0.010040625 0.434193
202 1 -0.032484375 -0.00261666666667 0.011221875 0.329963
203 1 -0.032484375 -0.00261666666667 0.012403125 0.373203
204 1 -0.032484375 -0.00261666666667 0.013584375 0.27413
205 1 -0.032484375 -0.00261666666667 0.014765625 0.297115
206 1 -0.032484375 -0.00261666666667 0.015946875 0.217273
207 1 -0.032484375 -0.00261666666667 0.017128125 0.220865
208 1 -0.032484375 -0.00261666666667 0.018309375 0.168161
209 1 -0.032484375 -0.00125 -0.018309375 0.142087
210 1 -0.032484375 -0.00125 -0.017128125 0.194805
211 1 -0.032484375 -0.00125 -0.015946875 0.203014
212 1 -0.032484375 -0.00125 -0.014765625 0.242566
213 1 -0.032484375 -0.00125 -0.013584375 0.269437
214 1 -0.032484375 -0.00125 -0.012403125 0.2891
215 1 -0.032484375 -0.00125 -0.011221875 0.325317
216 1 -0.032484375 -0.00125 -0.010040625 0.319823
217 1 -0.032484375 -0.00125 -0.008859375 0.366991
218 1 -0.032484375 -0.00125 -0.007678125 0.342296
219 1 -0.032484375 -0.00125 -0.006496875 0.395076
220 1 -0.032484375 -0.00125 -0.005315625 0.360126
221 1 -0.032484375 -0.00125 -0.004134375 0.419954
222 1 -0.032484375 -0.00125 -0.002953125 0.379595
223 1 -0.032484375 -0.00125 -0.001771875 0.446178
224 1 -0.032484375 -0.00125 -0.000590625 0.3989
225 1 -0.032484375 -0.00125 0.000590625 0.470836
226 1 -0.032484375 -0.00125 0.001771875 0.412806
227 1 -0.032484375 -0.00125 0.002953125 0.488063
228 1 -0.032484375 -0.00125 0.004134375 0.412883
229 1 -0.032484375 -0.00125 0.005315625 0.492098
230 1 -0.032484375 -0.00125 0.006496875 0.404622
231 1 -0.032484375 -0.00125 0.007678125 0.472972
232 1 -0.032484375 -0.00125 0.008859375 0.373628
233 1 -0.032484375 -0.00125 0.010040625 0.434193
234 1 -0.032484375 -0.00125 0.011221875 0.329963
235 1 -0.032484375 -0.00125 0.012403125 0.373203
236 1 -0.032484375 -0.00125 0.013584375 0.27413
237 1 -0.032484375 -0.00125 0.014765625 0.297115
238 1 -0.032484375 -0.00125 0.015946875 0.217273
239 1 -0.032484375 -0.00125 0.017128125 0.220865
240 1 -0.032484375 -0.00125 0.018309375 0.168161
241 1 -0.032484375 0.000116666666667 -0.018309375 0.142087
242 1 -0.032484375 0.000116666666667 -0.017128125 0.194805
243 1 -0.032484375 0.000116666666667 -0.015946875 0.203014
244 1 -0.032484375 0.000116666666667 -0.014765625 0.242566
245 1 -0.032484375 0.000116666666667 -0.013584375 0.269437
246 1 -0.032484375 0.000116666666667 -0.012403125 0.2891
247 1 -0.032484375 0.000116666666667 -0.011221875 0.325317
248 1 -0.032484375 0.000116666666667 -0.010040625 0.319823
249 1 -0.032484375 0.000116666666667 -0.008859375 0.366991
250 1 -0.032484375 0.000116666666667 -0.007678125 0.342296
251 1 -0.032484375 0.000116666666667 -0.006496875 0.395076
252 1 -0.032484375 0.000116666666667 -0.005315625 0.360126
253 1 -0.032484375 0.000116666666667 -0.004134375 0.419954
254 1 -0.032484375 0.000116666666667 -0.002953125 0.379595
255 1 -0.032484375 0.000116666666667 -0.001771875 0.446178
256 1 -0.032484375 0.000116666666667 -0.000590625 0.3989
257 1 -0.032484375 0.000116666666667 0.000590625 0.470836
258 1 -0.032484375 0.000116666666667 0.001771875 0.412806
259 1 -0.032484375 0.000116666666667 0.002953125 0.488063
260 1 -0.032484375 0.000116666666667 0.004134375 0.412883
261 1 -0.032484375 0.000116666666667 0.005315625 0.492098
262 1 -0.032484375 0.000116666666667 0.006496875 0.404622
263 1 -0.032484375 0.000116666666667 0.007678125 0.472972
264 1 -0.032484375 0.000116666666667 0.008859375 0.373628
265 1 -0.032484375 0.000116666666667 0.010040625 0.434193
266 1 -0.032484375 0.000116666666667 0.011221875 0.329963
267 1 -0.032484375 0.000116666666667 0.012403125 0.373203
268 1 -0.032484375 0.000116666666667 0.013584375 0.27413
269 1 -0.032484375 0.000116666666667 0.014765625 0.297115
270 1 -0.032484375 0.000116666666667 0.015946875 0.217273
271 1 -0.032484375 0.000116666666667 0.017128125 0.220865
272 1 -0.032484375 0.000116666666667 0.018309375 0.168161
273 1 -0.031303125 -0.00261666666667 -0.019490625 0.258712
274 1 -0.031303125 -0.00261666666667 -0.018309375 0.229335
275 1 -0.031303125 -0.00261666666667 -0.017128125 0.33165
276 1 -0.031303125 -0.00261666666667 -0.015946875 0.322043
277 1 -0.031303125 -0.00261666666667 -0.014765625 0.401427
278 1 -0.031303125 -0.00261666666667 -0.013584375 0.405791
279 1 -0.031303125 -0.00261666666667 -0.012403125 0.455697
280 1 -0.031303125 -0.00261666666667 -0.011221875 0.468709
281 1 -0.031303125 -0.00261666666667 -0.010040625 0.487592
282 1 -0.031303125 -0.00261666666667 -0.008859375 0.50628
283 1 -0.031303125 -0.00261666666667 -0.007678125 0.505412
284 1 -0.031303125 -0.00261666666667 -0.006496875 0.530273
285 1 -0.031303125 -0.00261666666667 -0.005315625 0.519204
286 1 -0.031303125 -0.00261666666667 -0.004134375 0.549671
287 1 -0.031303125 -0.00261666666667 -0.002953125 0.53316
288 1 -0.031303125 -0.00261666666667 -0.001771875 0.570489
289 1 -0.031303125 -0.00261666666667 -0.000590625 0.549594
290 1 -0.031303125 -0.00261666666667 0.000590625 0.587733
291 1 -0.031303125 -0.00261666666667 0.001771875 0.560175
292 1 -0.031303125 -0.00261666666667 0.002953125 0.598122
293 1 -0.031303125 -0.00261666666667 0.004134375 0.565121
294 1 -0.031303125 -0.00261666666667 0.005315625 0.599485
295 1 -0.031303125 -0.00261666666667 0.006496875 0.560583
296 1 -0.031303125 -0.00261666666667 0.007678125 0.585154
297 1 -0.031303125 -0.00261666666667 0.008859375 0.535706
298 1 -0.031303125 -0.00261666666667 0.010040625 0.547831
299 1 -0.031303125 -0.00261666666667 0.011221875 0.494721
300 1 -0.031303125 -0.00261666666667 0.012403125 0.491219
301 1 -0.031303125 -0.00261666666667 0.013584375 0.438615
302 1 -0.031303125 -0.00261666666667 0.014765625 0.410484
303 1 -0.031303125 -0.00261666666667 0.015946875 0.364314
304 1 -0.031303125 -0.00261666666667 0.017128125 0.317399
305 1 -0.031303125 -0.00261666666667 0.018309375 0.289442
306 1 -0.031303125 -0.00261666666667 0.019490625 0.234832
307 1 -0.031303125 -0.00125 -0.019490625 0.258712
308 1 -0.031303125 -0.00125 -0.018309375 0.229335
309 1 -0.031303125 -0.00125 -0.017128125 0.33165
310 1 -0.031303125 -0.00125 -0.015946875 0.322043
311 1 -0.031303125 -0.00125 -0.014765625 0.401427
312 1 -0.031303125 -0.00125 -0.013584375 0.405791
313 1 -0.031303125 -0.00125 -0.012403125 0.455697
314 1 -0.031303125 -0.00125 -0.011221875 0.468709
315 1 -0.031303125 -0.00125 -0.010040625 0.487592
316 1 -0.031303125 -0.00125 -0.008859375 0.50628
317 1 -0.031303125 -0.00125 -0.007678125 0.505412
318 1 -0.031303125 -0.00125 -0.006496875 0.530273
319 1 -0.031303125 -0.00125 -0.005315625 0.519204
320 1 -0.031303125 -0.00125 -0.004134375 0.549671
321 1 -0.031303125 -0.00125 -0.002953125 0.53316
322 1 -0.031303125 -0.00125 -0.001771875 0.570489
323 1 -0.031303125 -0.00125 -0.000590625 0.549594
324 1 -0.031303125 -0.00125 0.000590625 0.587733
325 1 -0.031303125 -0.00125 0.001771875 0.560175
326 1 -0.031303125 -0.00125 0.002953125 0.598122
327 1 -0.031303125 -0.00125 0.004134375 0.565121
328 1 -0.031303125 -0.00125 0.005315625 0.599485
329 1 -0.031303125 -0.00125 0.006496875 0.560583
330 1 -0.031303125 -0.00125 0.007678125 0.585154
331 1 -0.031303125 -0.00125 0.008859375 0.535706
332 1 -0.031303125 -0.00125 0.010040625 0.547831
333 1 -0.031303125 -0.00125 0.011221875 0.494721
334 1 -0.031303125 -0.00125 0.012403125 0.491219
335 1 -0.031303125 -0.00125 0.013584375 0.438615
336 1 -0.031303125 -0.00125 0.014765625 0.410484
337 1 -0.031303125 -0.00125 0.015946875 0.364314
338 1 -0.031303125 -0.00125 0.017128125 0.317399
339 1 -0.031303125 -0.00125 0.018309375 0.289442
340 1 -0.031303125 -0.00125 0.019490625 0.234832
341 1 -0.031303125 0.000116666666667 -0.019490625 0.258712
342 1 -0.031303125 0.000116666666667 -0.018309375 0.229335
343 1 -0.031303125 0.000116666666667 -0.017128125 0.33165
344 1 -0.031303125 0.000116666666667 -0.015946875 0.322043
345 1 -0.031303125 0.000116666666667 -0.014765625 0.401427
346 1 -0.031303125 0.000116666666667 -0.013584375 0.405791
347 1 -0.031303125 0.000116666666667 -0.012403125 0.455697
348 1 -0.031303125 0.000116666666667 -0.011221875 0.468709
349 1 -0.031303125 0.000116666666667 -0.010040625 0.487592
350 1 -0.031303125 0.000116666666667 -0.008859375 0.50628
351 1 -0.031303125 0.000116666666667 -0.007678125 0.505412
352 1 -0.031303125 0.000116666666667 -0.006496875 0.530273
353 1 -0.031303125 0.000116666666667 -0.005315625 0.519204
354 1 -0.031303125 0.000116666666667 -0.004134375 0.549671
355 1 -0.031303125 0.000116666666667 -0.002953125 0.53316
356 1 -0.031303125 0.000116666666667 -0.001771875 0.570489
357 1 -0.031303125 0.000116666666667 -0.000590625 0.549594
358 1 -0.031303125 0.000116666666667 0.000590625 0.587733
359 1 -0.031303125 0.000116666666667 0.001771875 0.560175
360 1 -0.031303125 0.000116666666667 0.002953125 0.598122
361 1 -0.031303125 0.000116666666667 0.004134375 0.565121
362 1 -0.031303125 0.000116666666667 0.005315625 0.599485
363 1 -0.031303125 0.000116666666667 0.006496875 0.560583
364 1 -0.031303125 0.000116666666667 0.007678125 0.585154
365 1 -0.031303125 0.000116666666667 0.008859375 0.535706
366 1 -0.031303125 0.000116666666667 0.010040625 0.547831
367 1 -0.031303125 0.000116666666667 0.011221875 0.494721
368 1 -0.031303125 0.000116666666667 0.012403125 0.491219
369 1 -0.031303125 0.000116666666667 0.013584375 0.438615
370 1 -0.031303125 0.000116666666667 0.014765625 0.410484
371 1 -0.031303125 0.000116666666667 0.015946875 0.364314
372 1 -0.031303125 0.000116666666667 0.017128125 0.317399
373 1 -0.031303125 0.000116666666667 0.018309375 0.289442
374 1 -0.031303125 0.000116666666667 0.019490625 0.234832
375 1 -0.030121875 -0.00261666666667 -0.020671875 0.211148
376 1 -0.030121875 -0.00261666666667 -0.019490625 0.269775
377 1 -0.030121875 -0.00261666666667 -0.018309375 0.309854
378 1 -0.030121875 -0.00261666666667 -0.017128125 0.354351
379 1 -0.030121875 -0.00261666666667 -0.015946875 0.404916
380 1 -0.030121875 -0.00261666666667 -0.014765625 0.425276
381 1 -0.030121875 -0.00261666666667 -0.013584375 0.487746
382 1 -0.030121875 -0.00261666666667 -0.012403125 0.475859
383 1 -0.030121875 -0.00261666666667 -0.011221875 0.543342
384 1 -0.030121875 -0.00261666666667 -0.010040625 0.496351
385 1 -0.030121875 -0.00261666666667 -0.008859375 0.568513
386 1 -0.030121875 -0.00261666666667 -0.007678125 0.507145
387 1 -0.030121875 -0.00261666666667 -0.006496875 0.574689
388 1 -0.030121875 -0.00261666666667 -0.005315625 0.513856
389 1 -0.030121875 -0.00261666666667 -0.004134375 0.578102
390 1 -0.030121875 -0.00261666666667 -0.002953125 0.522449
391 1 -0.030121875 -0.00261666666667 -0.001771875 0.584997
392 1 -0.030121875 -0.00261666666667 -0.000590625 0.534311
393 1 -0.030121875 -0.00261666666667 0.000590625 0.594868
394 1 -0.030121875 -0.00261666666667 0.001771875 0.545942
395 1 -0.030121875 -0.00261666666667 0.002953125 0.607482
396 1 -0.030121875 -0.00261666666667 0.004134375 0.54886
397 1 -0.030121875 -0.00261666666667 0.005315625 0.621686
398 1 -0.030121875 -0.00261666666667 0.006496875 0.546894
399 1 -0.030121875 -0.00261666666667 0.007678125 0.621951
400 1 -0.030121875 -0.00261666666667 0.008859375 0.524907
401 1 -0.030121875 -0.00261666666667 0.010040625 0.607023
402 1 -0.030121875 -0.00261666666667 0.011221875 0.49172
403 1 -0.030121875 -0.00261666666667 0.012403125 0.562875
404 1 -0.030121875 -0.00261666666667 0.013584375 0.436919
405 1 -0.030121875 -0.00261666666667 0.014765625 0.481526
406 1 -0.030121875 -0.00261666666667 0.015946875 0.35523
407 1 -0.030121875 -0.00261666666667 0.017128125 0.383001
408 1 -0.030121875 -0.00261666666667 0.018309375 0.27565
409 1 -0.030121875 -0.00261666666667 0.019490625 0.284491
410 1 -0.030121875 -0.00261666666667 0.020671875 0.216313
411 1 -0.030121875 -0.00125 -0.020671875 0.211148
412 1 -0.030121875 -0.00125 -0.019490625 0.269775
413 1 -0.030121875 -0.00125 -0.018309375 0.309854
414 1 -0.030121875 -0.00125 -0.017128125 0.354351
415 1 -0.030121875 -0.00125 -0.015946875 0.404916
416 1 -0.030121875 -0.00125 -0.014765625 0.425276
417 1 -0.030121875 -0.00125 -0.013584375 0.487746
418 1 -0.030121875 -0.00125 -0.012403125 0.475859
419 1 -0.030121875 -0.00125 -0.011221875 0.543342
420 1 -0.030121875 -0.00125 -0.010040625 0.496351
421 1 -0.030121875 -0.00125 -0.008859375 0.568513
422 1 -0.030121875 -0.00125 -0.007678125 0.507145
423 1 -0.030121875 -0.00125 -0.006496875 0.574689
424 1 -0.030121875 -0.00125 -0.005315625 0.513856
425 1 -0.030121875 -0.00125 -0.004134375 0.578102
426 1 -0.030121875 -0.00125 -0.002953125 0.522449
427 1 -0.030121875 -0.00125 -0.001771875 0.584997
428 1 -0.030121875 -0.00125 -0.000590625 0.534311
429 1 -0.030121875 -0.00125 0.000590625 0.594868
430 1 -0.030121875 -0.00125 0.001771875 0.545942
431 1 -0.030121875 -0.00125 0.002953125 0.607482
432 1 -0.030121875 -0.00125 0.004134375 0.54886
433 1 -0.030121875 -0.00125 0.005315625 0.621686
434 1 -0.030121875 -0.00125 0.006496875 0.546894
435 1 -0.030121875 -0.00125 0.007678125 0.621951
436 1 -0.030121875 -0.00125 0.008859375 0.524907
437 1 -0.030121875 -0.00125 0.010040625 0.607023
438 1 -0.030121875 -0.00125 0.011221875 0.49172
439 1 -0.030121875 -0.00125 0.012403125 0.562875
440 1 -0.030121875 -0.00125 0.013584375 0.436919
441 1 -0.030121875 -0.00125 0.014765625 0.481526
442 1 -0.030121875 -0.00125 0.015946875 0.35523
443 1 -0.030121875 -0.00125 0.017128125 0.383001
444 1 -0.030121875 -0.00125 0.018309375 0.27565
445 1 -0.030121875 -0.00125 0.019490625 0.284491
446 1 -0.030121875 -0.00125 0.020671875 0.216313
447 1 -0.030121875 0.000116666666667 -0.020671875 0.211148
448 1 -0.030121875 0.000116666666667 -0.019490625 0.269775
449 1 -0.030121875 0.000116666666667 -0.018309375 0.309854
450 1 -0.030121875 0.000116666666667 -0.017128125 0.354351
451 1 -0.030121875 0.000116666666667 -0.015946875 0.404916
452 1 -0.030121875 0.000116666666667 -0.014765625 0.425276
453 1 -0.030121875 0.000116666666667 -0.013584375 0.487746
454 1 -0.030121875 0.000116666666667 -0.012403125 0.475859
455 1 -0.030121875 0.000116666666667 -0.011221875 0.543342
456 1 -0.030121875 0.000116666666667 -0.010040625 0.496351
457 1 -0.030121875 0.000116666666667 -0.008859375 0.568513
458 1 -0.030121875 0.000116666666667 -0.007678125 0.507145
459 1 -0.030121875 0.000116666666667 -0.006496875 0.574689
460 1 -0.030121875 0.000116666666667 -0.005315625 0.513856
461 1 -0.030121875 0.000116666666667 -0.004134375 0.578102
462 1 -0.030121875 0.000116666666667 -0.002953125 0.522449
463 1 -0.030121875 0.000116666666667 -0.001771875 0.584997
464 1 -0.030121875 0.000116666666667 -0.000590625 0.534311
465 1 -0.030121875 0.000116666666667 0.000590625 0.594868
466 1 -0.030121875 0.000116666666667 0.001771875 0.545942
467 1 -0.030121875 0.000116666666667 0.002953125 0.607482
468 1 -0.030121875 0.000116666666667 0.004134375 0.54886
469 1 -0.030121875 0.000116666666667 0.005315625 0.621686
470 1 -0.030121875 0.000116666666667 0.006496875 0.546894
471 1 -0.030121875 0.000116666666667 0.007678125 0.621951
472 1 -0.030121875 0.000116666666667 0.008859375 0.524907
473 1 -0.030121875 0.000116666666667 0.010040625 0.607023
474 1 -0.030121875 0.000116666666667 0.011221875 0.49172
475 1 -0.030121875 0.000116666666667 0.012403125 0.562875
476 1 -0.030121875 0.000116666666667 0.013584375 0.436919
477 1 -0.030121875 0.000116666666667 0.014765625 0.481526
478 1 -0.030121875 0.000116666666667 0.015946875 0.35523
479 1 -0.030121875 0.000116666666667 0.017128125 0.383001
480 1 -0.030121875 0.000116666666667 0.018309375 0.27565
481 1 -0.030121875 0.000116666666667 0.019490625 0.284491
482 1 -0.030121875 0.000116666666667 0.020671875 0.216313
483 1 -0.028940625 -0.00261666666667 -0.021853125 0.28697
484 1 -0.028940625 -0.00261666666667 -0.020671875 0.268369
485 1 -0.028940625 -0.00261666666667 -0.019490625 0.379886
486 1 -0.028940625 -0.00261666666667 -0.018309375 0.386252
487 1 -0.028940625 -0.00261666666667 -0.017128125 0.465595
488 1 -0.028940625 -0.00261666666667 -0.015946875 0.492011
489 1 -0.028940625 -0.00261666666667 -0.014765625 0.525921
490 1 -0.028940625 -0.00261666666667 -0.013584375 0.563746
491 1 -0.028940625 -0.00261666666667 -0.012403125 0.559485
492 1 -0.028940625 -0.00261666666667 -0.011221875 0.599688
493 1 -0.028940625 -0.00261666666667 -0.010040625 0.57313
494 1 -0.028940625 -0.00261666666667 -0.008859375 0.604527
495 1 -0.028940625 -0.00261666666667 -0.007678125 0.573366
496 1 -0.028940625 -0.00261666666667 -0.006496875 0.600498
497 1 -0.028940625 -0.00261666666667 -0.005315625 0.573327
498 1 -0.028940625 -0.00261666666667 -0.004134375 0.595803
499 1 -0.028940625 -0.00261666666667 -0.002953125 0.574205
500 1 -0.028940625 -0.00261666666667 -0.001771875 0.597086
501 1 -0.028940625 -0.00261666666667 -0.000590625 0.581953
502 1 -0.028940625 -0.00261666666667 0.000590625 0.603877
503 1 -0.028940625 -0.00261666666667 0.001771875 0.590018
504 1 -0.028940625 -0.00261666666667 0.002953125 0.614342
505 1 -0.028940625 -0.00261666666667 0.004134375 0.596976
506 1 -0.028940625 -0.00261666666667 0.005315625 0.624104
507 1 -0.028940625 -0.00261666666667 0.006496875 0.598618
508 1 -0.028940625 -0.00261666666667 0.007678125 0.62886
509 1 -0.028940625 -0.00261666666667 0.008859375 0.589215
510 1 -0.028940625 -0.00261666666667 0.010040625 0.623015
511 1 -0.028940625 -0.00261666666667 0.011221875 0.566866
512 1 -0.028940625 -0.00261666666667 0.012403125 0.595192
513 1 -0.028940625 -0.00261666666667 0.013584375 0.526006
514 1 -0.028940625 -0.00261666666667 0.014765625 0.535136
515 1 -0.028940625 -0.00261666666667 0.015946875 0.456051
516 1 -0.028940625 -0.00261666666667 0.017128125 0.443367
517 1 -0.028940625 -0.00261666666667 0.018309375 0.380524
518 1 -0.028940625 -0.00261666666667 0.019490625 0.350307
519 1 -0.028940625 -0.00261666666667 0.020671875 0.312095
520 1 -0.028940625 -0.00261666666667 0.021853125 0.27419
521 1 -0.028940625 -0.00125 -0.021853125 0.28697
522 1 -0.028940625 -0.00125 -0.020671875 0.268369
523 1 -0.028940625 -0.00125 -0.019490625 0.379886
524 1 -0.028940625 -0.00125 -0.018309375 0.386252
525 1 -0.028940625 -0.00125 -0.017128125 0.465595
526 1 -0.028940625 -0.00125 -0.015946875 0.492011
527 1 -0.028940625 -0.00125 -0.014765625 0.525921
528 1 -0.028940625 -0.00125 -0.013584375 0.563746
529 1 -0.028940625 -0.00125 -0.012403125 0.559485
530 1 -0.028940625 -0.00125 -0.011221875 0.599688
531 1 -0.028940625 -0.00125 -0.010040625 0.57313
532 1 -0.028940625 -0.00125 -0.008859375 0.604527
533 1 -0.028940625 -0.00125 -0.007678125 0.573366
534 1 -0.028940625 -0.00125 -0.006496875 0.600498
535 1 -0.028940625 -0.00125 -0.005315625 0.573327
536 1 -0.028940625 -0.00125 -0.004134375 0.595803
537 1 -0.028940625 -0.00125 -0.002953125 0.574205
538 1 -0.028940625 -0.00125 -0.001771875 0.597086