ITEM: TIMESTEP
0
ITEM: NUMBER OF ATOMS
9240
ITEM: BOX BOUNDS ss ss ss
-3.7007399999999996e-02 3.7007399999999996e-02
-2.0002499999999999e-03 2.5000000000000004e-07
-3.7007399999999996e-02 3.7007399999999996e-02
ITEM: ATOMS id type x y z c_1
0 1 -0.037209375 -0.00261666666667 -0.000590625 0.268533
1 1 -0.037209375 -0.00125 -0.000590625 0.268533
2 1 -0.037209375 0.000116666666667 -0.000590625 0.268533
3 1 -0.036028125 -0.00261666666667 -0.007678125 0.199015
4 1 -0.036028125 -0.00261666666667 -0.006496875 0.0989417
5 1 -0.036028125 -0.00261666666667 -0.005315625 0.209977
6 1 -0.036028125 -0.00261666666667 -0.004134375 0.107978
7 1 -0.036028125 -0.00261666666667 -0.002953125 0.220013
8 1 -0.036028125 -0.00261666666667 -0.001771875 0.117489
9 1 -0.036028125 -0.00261666666667 -0.000590625 0.230754
10 1 -0.036028125 -0.00261666666667 0.000590625 0.125721
11 1 -0.036028125 -0.00261666666667 0.001771875 0.237841
12 1 -0.036028125 -0.00261666666667 0.002953125 0.131001
13 1 -0.036028125 -0.00261666666667 0.004134375 0.239416
14 1 -0.036028125 -0.00261666666667 0.005315625 0.128382
15 1 -0.036028125 -0.00261666666667 0.006496875 0.229749
16 1 -0.036028125 -0.00261666666667 0.007678125 0.118112
17 1 -0.036028125 -0.00125 -0.007678125 0.199015
18 1 -0.036028125 -0.00125 -0.006496875 0.0989417
19 1 -0.036028125 -0.00125 -0.005315625 0.209977
20 1 -0.036028125 -0.00125 -0.004134375 0.107978
21 1 -0.036028125 -0.00125 -0.002953125 0.220013
22 1 -0.036028125 -0.00125 -0.001771875 0.117489
23 1 -0.036028125 -0.00125 -0.000590625 0.230754
24 1 -0.036028125 -0.00125 0.000590625 0.125721
25 1 -0.036028125 -0.00125 0.001771875 0.237841
26 1 -0.036028125 -0.00125 0.002953125 0.131001
27 1 -0.036028125 -0.00125 0.004134375 0.239416
28 1 -0.036028125 -0.00125 0.005315625 0.128382
29 1 -0.036028125 -0.00125 0.006496875 0.229749
30 1 -0.036028125 -0.00125 0.007678125 0.118112
31 1 -0.036028125 0.000116666666667 -0.007678125 0.199015
32 1 -0.036028125 0.000116666666667 -0.006496875 0.0989417
33 1 -0.036028125 0.000116666666667 -0.005315625 0.209977
34 1 -0.036028125 0.000116666666667 -0.004134375 0.107978
35 1 -0.036028125 0.000116666666667 -0.002953125 0.220013
36 1 -0.036028125 0.000116666666667 -0.001771875 0.117489
37 1 -0.036028125 0.000116666666667 -0.000590625 0.230754
38 1 -0.036028125 0.000116666666667 0.000590625 0.125721
39 1 -0.036028125 0.000116666666667 0.001771875 0.237841
40 1 -0.036028125 0.000116666666667 0.002953125 0.131001
41 1 -0.036028125 0.000116666666667 0.004134375 0.239416
42 1 -0.036028125 0.000116666666667 0.005315625 0.128382
43 1 -0.036028125 0.000116666666667 0.006496875 0.229749
44 1 -0.036028125 0.000116666666667 0.007678125 0.118112
45 1 -0.034846875 -0.00261666666667 -0.011221875 0.0868919
46 1 -0.034846875 -0.00261666666667 -0.010040625 0.138236
47 1 -0.034846875 -0.00261666666667 -0.008859375 0.103724
48 1 -0.034846875 -0.00261666666667 -0.007678125 0.152722
49 1 -0.034846875 -0.00261666666667 -0.006496875 0.117348
50 1 -0.034846875 -0.00261666666667 -0.005315625 0.163204
51 1 -0.034846875 -0.00261666666667 -0.004134375 0.130267
52 1 -0.034846875 -0.00261666666667 -0.002953125 0.172838
53 1 -0.034846875 -0.00261666666667 -0.001771875 0.143503
54 1 -0.034846875 -0.00261666666667 -0.000590625 0.182293
55 1 -0.034846875 -0.00261666666667 0.000590625 0.156389
56 1 -0.034846875 -0.00261666666667 0.001771875 0.189565
57 1 -0.034846875 -0.00261666666667 0.002953125 0.165
58 1 -0.034846875 -0.00261666666667 0.004134375 0.189431
59 1 -0.034846875 -0.00261666666667 0.005315625 0.166673
60 1 -0.034846875 -0.00261666666667 0.006496875 0.180884
61 1 -0.034846875 -0.00261666666667 0.007678125 0.153707
62 1 -0.034846875 -0.00261666666667 0.008859375 0.158991
63 1 -0.034846875 -0.00261666666667 0.010040625 0.128559
64 1 -0.034846875 -0.00261666666667 0.011221875 0.131567
65 1 -0.034846875 -0.00125 -0.011221875 0.0868919
66 1 -0.034846875 -0.00125 -0.010040625 0.138236
67 1 -0.034846875 -0.00125 -0.008859375 0.103724
68 1 -0.034846875 -0.00125 -0.007678125 0.152722
69 1 -0.034846875 -0.00125 -0.006496875 0.117348
70 1 -0.034846875 -0.00125 -0.005315625 0.163204
71 1 -0.034846875 -0.00125 -0.004134375 0.130267
72 1 -0.034846875 -0.00125 -0.002953125 0.172838
73 1 -0.034846875 -0.00125 -0.001771875 0.143503
74 1 -0.034846875 -0.00125 -0.000590625 0.182293
75 1 -0.034846875 -0.00125 0.000590625 0.156389
76 1 -0.034846875 -0.00125 0.001771875 0.189565
77 1 -0.034846875 -0.00125 0.002953125 0.165
78 1 -0.034846875 -0.00125 0.004134375 0.189431
79 1 -0.034846875 -0.00125 0.005315625 0.166673
80 1 -0.034846875 -0.00125 0.006496875 0.180884
81 1 -0.034846875 -0.00125 0.007678125 0.153707
82 1 -0.034846875 -0.00125 0.008859375 0.158991
83 1 -0.034846875 -0.00125 0.010040625 0.128559
84 1 -0.034846875 -0.00125 0.011221875 0.131567
85 1 -0.034846875 0.000116666666667 -0.011221875 0.0868919
86 1 -0.034846875 0.000116666666667 -0.010040625 0.138236
87 1 -0.034846875 0.000116666666667 -0.008859375 0.103724
88 1 -0.034846875 0.000116666666667 -0.007678125 0.152722
89 1 -0.034846875 0.000116666666667 -0.006496875 0.117348
90 1 -0.034846875 0.000116666666667 -0.005315625 0.163204
91 1 -0.034846875 0.000116666666667 -0.004134375 0.130267
92 1 -0.034846875 0.000116666666667 -0.002953125 0.172838
93 1 -0.034846875 0.000116666666667 -0.001771875 0.143503
94 1 -0.034846875 0.000116666666667 -0.000590625 0.182293
95 1 -0.034846875 0.000116666666667 0.000590625 0.156389
96 1 -0.034846875 0.000116666666667 0.001771875 0.189565
97 1 -0.034846875 0.000116666666667 0.002953125 0.165
98 1 -0.034846875 0.000116666666667 0.004134375 0.189431
99 1 -0.034846875 0.000116666666667 0.005315625 0.166673
100 1 -0.034846875 0.000116666666667 0.006496875 0.180884
101 1 -0.034846875 0.000116666666667 0.007678125 0.153707
102 1 -0.034846875 0.000116666666667 0.008859375 0.158991
103 1 -0.034846875 0.000116666666667 0.010040625 0.128559
104 1 -0.034846875 0.000116666666667 0.011221875 0.131567
105 1 -0.033665625 -0.00261666666667 -0.013584375 0.140405
106 1 -0.033665625 -0.00261666666667 -0.012403125 0.266178
107 1 -0.033665625 -0.00261666666667 -0.011221875 0.189258
108 1 -0.033665625 -0.00261666666667 -0.010040625 0.306611
109 1 -0.033665625 -0.00261666666667 -0.008859375 0.228991
110 1 -0.033665625 -0.00261666666667 -0.007678125 0.331927
111 1 -0.033665625 -0.00261666666667 -0.006496875 0.258412
112 1 -0.033665625 -0.00261666666667 -0.005315625 0.349853
113 1 -0.033665625 -0.00261666666667 -0.004134375 0.280916
114 1 -0.033665625 -0.00261666666667 -0.002953125 0.365538
115 1 -0.033665625 -0.00261666666667 -0.001771875 0.303604
116 1 -0.033665625 -0.00261666666667 -0.000590625 0.383131
117 1 -0.033665625 -0.00261666666667 0.000590625 0.323714
118 1 -0.033665625 -0.00261666666667 0.001771875 0.396106
119 1 -0.033665625 -0.00261666666667 0.002953125 0.337893
120 1 -0.033665625 -0.00261666666667 0.004134375 0.401472
121 1 -0.033665625 -0.00261666666667 0.005315625 0.336459
122 1 -0.033665625 -0.00261666666667 0.006496875 0.391928
123 1 -0.033665625 -0.00261666666667 0.007678125 0.315942
124 1 -0.033665625 -0.00261666666667 0.008859375 0.362556
125 1 -0.033665625 -0.00261666666667 0.010040625 0.268534
126 1 -0.033665625 -0.00261666666667 0.011221875 0.307864
127 1 -0.033665625 -0.00261666666667 0.012403125 0.201947
128 1 -0.033665625 -0.00261666666667 0.013584375 0.238504
129 1 -0.033665625 -0.00125 -0.013584375 0.140405
130 1 -0.033665625 -0.00125 -0.012403125 0.266178
131 1 -0.033665625 -0.00125 -0.011221875 0.189258
132 1 -0.033665625 -0.00125 -0.010040625 0.306611
133 1 -0.033665625 -0.00125 -0.008859375 0.228991
134 1 -0.033665625 -0.00125 -0.007678125 0.331927
135 1 -0.033665625 -0.00125 -0.006496875 0.258412
136 1 -0.033665625 -0.00125 -0.005315625 0.349853
137 1 -0.033665625 -0.00125 -0.004134375 0.280916
138 1 -0.033665625 -0.00125 -0.002953125 0.365538
139 1 -0.033665625 -0.00125 -0.001771875 0.303604
140 1 -0.033665625 -0.00125 -0.000590625 0.383131
141 1 -0.033665625 -0.00125 0.000590625 0.323714
142 1 -0.033665625 -0.00125 0.001771875 0.396106
143 1 -0.033665625 -0.00125 0.002953125 0.337893
144 1 -0.033665625 -0.00125 0.004134375 0.401472
145 1 -0.033665625 -0.00125 0.005315625 0.336459
146 1 -0.033665625 -0.00125 0.006496875 0.391928
147 1 -0.033665625 -0.00125 0.007678125 0.315942
148 1 -0.033665625 -0.00125 0.008859375 0.362556
149 1 -0.033665625 -0.00125 0.010040625 0.268534
150 1 -0.033665625 -0.00125 0.011221875 0.307864
151 1 -0.033665625 -0.00125 0.012403125 0.201947
152 1 -0.033665625 -0.00125 0.013584375 0.238504
153 1 -0.033665625 0.000116666666667 -0.013584375 0.140405
154 1 -0.033665625 0.000116666666667 -0.012403125 0.266178
155 1 -0.033665625 0.000116666666667 -0.011221875 0.189258
156 1 -0.033665625 0.000116666666667 -0.010040625 0.306611
157 1 -0.033665625 0.000116666666667 -0.008859375 0.228991
158 1 -0.033665625 0.000116666666667 -0.007678125 0.331927
159 1 -0.033665625 0.000116666666667 -0.006496875 0.258412
160 1 -0.033665625 0.000116666666667 -0.005315625 0.349853
161 1 -0.033665625 0.000116666666667 -0.004134375 0.280916
162 1 -0.033665625 0.000116666666667 -0.002953125 0.365538
163 1 -0.033665625 0.000116666666667 -0.001771875 0.303604
164 1 -0.033665625 0.000116666666667 -0.000590625 0.383131
165 1 -0.033665625 0.000116666666667 0.000590625 0.323714
166 1 -0.033665625 0.000116666666667 0.001771875 0.396106
167 1 -0.033665625 0.000116666666667 0.002953125 0.337893
168 1 -0.033665625 0.000116666666667 0.004134375 0.401472
169 1 -0.033665625 0.000116666666667 0.005315625 0.336459
170 1 -0.033665625 0.000116666666667 0.006496875 0.391928
171 1 -0.033665625 0.000116666666667 0.007678125 0.315942
172 1 -0.033665625 0.000116666666667 0.008859375 0.362556
173 1 -0.033665625 0.000116666666667 0.010040625 0.268534
174 1 -0.033665625 0.000116666666667 0.011221875 0.307864
175 1 -0.033665625 0.000116666666667 0.012403125 0.201947
176 1 -0.033665625 0.000116666666667 0.013584375 0.238504
177 1 -0.032484375 -0.00261666666667 -0.018309375 0.0886173
178 1 -0.032484375 -0.00261666666667 -0.017128125 0.14911
179 1 -0.032484375 -0.00261666666667 -0.015946875 0.165006
180 1 -0.032484375 -0.00261666666667 -0.014765625 0.213073
181 1 -0.032484375 -0.00261666666667 -0.013584375 0.252186
182 1 -0.032484375 -0.00261666666667 -0.012403125 0.273887
183 1 -0.032484375 -0.00261666666667 -0.011221875 0.326263
184 1 -0.032484375 -0.00261666666667 -0.010040625 0.313602
185 1 -0.032484375 -0.00261666666667 -0.008859375 0.377858
186 1 -0.032484375 -0.00261666666667 -0.007678125 0.337701
187 1 -0.032484375 -0.00261666666667 -0.006496875 0.407798
188 1 -0.032484375 -0.00261666666667 -0.005315625 0.349811
189 1 -0.032484375 -0.00261666666667 -0.004134375 0.426776
190 1 -0.032484375 -0.00261666666667 -0.002953125 0.359563
191 1 -0.032484375 -0.00261666666667 -0.001771875 0.445958
192 1 -0.032484375 -0.00261666666667 -0.000590625 0.371243
193 1 -0.032484375 -0.00261666666667 0.000590625 0.466851
194 1 -0.032484375 -0.00261666666667 0.001771875 0.382319
195 1 -0.032484375 -0.00261666666667 0.002953125 0.485621
196 1 -0.032484375 -0.00261666666667 0.004134375 0.384641
197 1 -0.032484375 -0.00261666666667 0.005315625 0.502243
198 1 -0.032484375 -0.00261666666667 0.006496875 0.379963
199 1 -0.032484375 -0.00261666666667 0.007678125 0.499535
200 1 -0.032484375 -0.00261666666667 0.008859375 0.352354
201 1 -0.032484375 -0.00261666666667 0.010040625 0.461035
202 1 -0.032484375 -0.00261666666667 0.011221875 0.299781
203 1 -0.032484375 -0.00261666666667 0.012403125 0.367925
204 1 -0.032484375 -0.00261666666667 0.013584375 0.218873
205 1 -0.032484375 -0.00261666666667 0.014765625 0.247513
206 1 -0.032484375 -0.00261666666667 0.015946875 0.142176
207 1 -0.032484375 -0.00261666666667 0.017128125 0.141697
208 1 -0.032484375 -0.00261666666667 0.018309375 0.0883603
209 1 -0.032484375 -0.00125 -0.018309375 0.0886173
210 1 -0.032484375 -0.00125 -0.017128125 0.14911
211 1 -0.032484375 -0.00125 -0.015946875 0.165006
212 1 -0.032484375 -0.00125 -0.014765625 0.213073
213 1 -0.032484375 -0.00125 -0.013584375 0.252186
214 1 -0.032484375 -0.00125 -0.012403125 0.273887
215 1 -0.032484375 -0.00125 -0.011221875 0.326263
216 1 -0.032484375 -0.00125 -0.010040625 0.313602
217 1 -0.032484375 -0.00125 -0.008859375 0.377858
218 1 -0.032484375 -0.00125 -0.007678125 0.337701
219 1 -0.032484375 -0.00125 -0.006496875 0.407798
220 1 -0.032484375 -0.00125 -0.005315625 0.349811
221 1 -0.032484375 -0.00125 -0.004134375 0.426776
222 1 -0.032484375 -0.00125 -0.002953125 0.359563
223 1 -0.032484375 -0.00125 -0.001771875 0.445958
224 1 -0.032484375 -0.00125 -0.000590625 0.371243
225 1 -0.032484375 -0.00125 0.000590625 0.466851
226 1 -0.032484375 -0.00125 0.001771875 0.382319
227 1 -0.032484375 -0.00125 0.002953125 0.485621
228 1 -0.032484375 -0.00125 0.004134375 0.384641
229 1 -0.032484375 -0.00125 0.005315625 0.502243
230 1 -0.032484375 -0.00125 0.006496875 0.379963
231 1 -0.032484375 -0.00125 0.007678125 0.499535
232 1 -0.032484375 -0.00125 0.008859375 0.352354
233 1 -0.032484375 -0.00125 0.010040625 0.461035
234 1 -0.032484375 -0.00125 0.011221875 0.299781
235 1 -0.032484375 -0.00125 0.012403125 0.367925
236 1 -0.032484375 -0.00125 0.013584375 0.218873
237 1 -0.032484375 -0.00125 0.014765625 0.247513
238 1 -0.032484375 -0.00125 0.015946875 0.142176
239 1 -0.032484375 -0.00125 0.017128125 0.141697
240 1 -0.032484375 -0.00125 0.018309375 0.0883603
241 1 -0.032484375 0.000116666666667 -0.018309375 0.0886173
242 1 -0.032484375 0.000116666666667 -0.017128125 0.14911
243 1 -0.032484375 0.000116666666667 -0.015946875 0.165006
244 1 -0.032484375 0.000116666666667 -0.014765625 0.213073
245 1 -0.032484375 0.000116666666667 -0.013584375 0.252186
246 1 -0.032484375 0.000116666666667 -0.012403125 0.273887
247 1 -0.032484375 0.000116666666667 -0.011221875 0.326263
248 1 -0.032484375 0.000116666666667 -0.010040625 0.313602
249 1 -0.032484375 0.000116666666667 -0.008859375 0.377858
250 1 -0.032484375 0.000116666666667 -0.007678125 0.337701
251 1 -0.032484375 0.000116666666667 -0.006496875 0.407798
252 1 -0.032484375 0.000116666666667 -0.005315625 0.349811
253 1 -0.032484375 0.000116666666667 -0.004134375 0.426776
254 1 -0.032484375 0.000116666666667 -0.002953125 0.359563
255 1 -0.032484375 0.000116666666667 -0.001771875 0.445958
256 1 -0.032484375 0.000116666666667 -0.000590625 0.371243
257 1 -0.032484375 0.000116666666667 0.000590625 0.466851
258 1 -0.032484375 0.000116666666667 0.001771875 0.382319
259 1 -0.032484375 0.000116666666667 0.002953125 0.485621
260 1 -0.032484375 0.000116666666667 0.004134375 0.384641
261 1 -0.032484375 0.000116666666667 0.005315625 0.502243
262 1 -0.032484375 0.000116666666667 0.006496875 0.379963
263 1 -0.032484375 0.000116666666667 0.007678125 0.499535
264 1 -0.032484375 0.000116666666667 0.008859375 0.352354
265 1 -0.032484375 0.000116666666667 0.010040625 0.461035
266 1 -0.032484375 0.000116666666667 0.011221875 0.299781
267 1 -0.032484375 0.000116666666667 0.012403125 0.367925
268 1 -0.032484375 0.000116666666667 0.013584375 0.218873
269 1 -0.032484375 0.000116666666667 0.014765625 0.247513
270 1 -0.032484375 0.000116666666667 0.015946875 0.142176
271 1 -0.032484375 0.000116666666667 0.017128125 0.141697
272 1 -0.032484375 0.000116666666667 0.018309375 0.0883603
273 1 -0.031303125 -0.00261666666667 -0.019490625 0.218717
274 1 -0.031303125 -0.00261666666667 -0.018309375 0.190419
275 1 -0.031303125 -0.00261666666667 -0.017128125 0.328582
276 1 -0.031303125 -0.00261666666667 -0.015946875 0.326326
277 1 -0.031303125 -0.00261666666667 -0.014765625 0.423802
278 1 -0.031303125 -0.00261666666667 -0.013584375 0.444748
279 1 -0.031303125 -0.00261666666667 -0.012403125 0.488677
280 1 -0.031303125 -0.00261666666667 -0.011221875 0.524077
281 1 -0.031303125 -0.00261666666667 -0.010040625 0.526046
282 1 -0.031303125 -0.00261666666667 -0.008859375 0.5675
283 1 -0.031303125 -0.00261666666667 -0.007678125 0.542745
284 1 -0.031303125 -0.00261666666667 -0.006496875 0.584148
285 1 -0.031303125 -0.00261666666667 -0.005315625 0.548726
286 1 -0.031303125 -0.00261666666667 -0.004134375 0.587961
287 1 -0.031303125 -0.00261666666667 -0.002953125 0.553444
288 1 -0.031303125 -0.00261666666667 -0.001771875 0.595011
289 1 -0.031303125 -0.00261666666667 -0.000590625 0.563943
290 1 -0.031303125 -0.00261666666667 0.000590625 0.60443
291 1 -0.031303125 -0.00261666666667 0.001771875 0.573665
292 1 -0.031303125 -0.00261666666667 0.002953125 0.618041
293 1 -0.031303125 -0.00261666666667 0.004134375 0.583604
294 1 -0.031303125 -0.00261666666667 0.005315625 0.628196
295 1 -0.031303125 -0.00261666666667 0.006496875 0.586002
296 1 -0.031303125 -0.00261666666667 0.007678125 0.635761
297 1 -0.031303125 -0.00261666666667 0.008859375 0.578536
298 1 -0.031303125 -0.00261666666667 0.010040625 0.61732
299 1 -0.031303125 -0.00261666666667 0.011221875 0.540911
300 1 -0.031303125 -0.00261666666667 0.012403125 0.549818
301 1 -0.031303125 -0.00261666666667 0.013584375 0.459929
302 1 -0.031303125 -0.00261666666667 0.014765625 0.421041
303 1 -0.031303125 -0.00261666666667 0.015946875 0.348321
304 1 -0.031303125 -0.00261666666667 0.017128125 0.27046
305 1 -0.031303125 -0.00261666666667 0.018309375 0.236956
306 1 -0.031303125 -0.00261666666667 0.019490625 0.154618
307 1 -0.031303125 -0.00125 -0.019490625 0.218717
308 1 -0.031303125 -0.00125 -0.018309375 0.190419
309 1 -0.031303125 -0.00125 -0.017128125 0.328582
310 1 -0.031303125 -0.00125 -0.015946875 0.326326
311 1 -0.031303125 -0.00125 -0.014765625 0.423802
312 1 -0.031303125 -0.00125 -0.013584375 0.444748
313 1 -0.031303125 -0.00125 -0.012403125 0.488677
314 1 -0.031303125 -0.00125 -0.011221875 0.524077
315 1 -0.031303125 -0.00125 -0.010040625 0.526046
316 1 -0.031303125 -0.00125 -0.008859375 0.5675
317 1 -0.031303125 -0.00125 -0.007678125 0.542745
318 1 -0.031303125 -0.00125 -0.006496875 0.584148
319 1 -0.031303125 -0.00125 -0.005315625 0.548726
320 1 -0.031303125 -0.00125 -0.004134375 0.587961
321 1 -0.031303125 -0.00125 -0.002953125 0.553444
322 1 -0.031303125 -0.00125 -0.001771875 0.595011
323 1 -0.031303125 -0.00125 -0.000590625 0.563943
324 1 -0.031303125 -0.00125 0.000590625 0.60443
325 1 -0.031303125 -0.00125 0.001771875 0.573665
326 1 -0.031303125 -0.00125 0.002953125 0.618041
327 1 -0.031303125 -0.00125 0.004134375 0.583604
328 1 -0.031303125 -0.00125 0.005315625 0.628196
329 1 -0.031303125 -0.00125 0.006496875 0.586002
330 1 -0.031303125 -0.00125 0.007678125 0.635761
331 1 -0.031303125 -0.00125 0.008859375 0.578536
332 1 -0.031303125 -0.00125 0.010040625 0.61732
333 1 -0.031303125 -0.00125 0.011221875 0.540911
334 1 -0.031303125 -0.00125 0.012403125 0.549818
335 1 -0.031303125 -0.00125 0.013584375 0.459929
336 1 -0.031303125 -0.00125 0.014765625 0.421041
337 1 -0.031303125 -0.00125 0.015946875 0.348321
338 1 -0.031303125 -0.00125 0.017128125 0.27046
339 1 -0.031303125 -0.00125 0.018309375 0.236956
340 1 -0.031303125 -0.00125 0.019490625 0.154618
341 1 -0.031303125 0.000116666666667 -0.019490625 0.218717
342 1 -0.031303125 0.000116666666667 -0.018309375 0.190419
343 1 -0.031303125 0.000116666666667 -0.017128125 0.328582
344 1 -0.031303125 0.000116666666667 -0.015946875 0.326326
345 1 -0.031303125 0.000116666666667 -0.014765625 0.423802
346 1 -0.031303125 0.000116666666667 -0.013584375 0.444748
347 1 -0.031303125 0.000116666666667 -0.012403125 0.488677
348 1 -0.031303125 0.000116666666667 -0.011221875 0.524077
349 1 -0.031303125 0.000116666666667 -0.010040625 0.526046
350 1 -0.031303125 0.000116666666667 -0.008859375 0.5675
351 1 -0.031303125 0.000116666666667 -0.007678125 0.542745
352 1 -0.031303125 0.000116666666667 -0.006496875 0.584148
353 1 -0.031303125 0.000116666666667 -0.005315625 0.548726
354 1 -0.031303125 0.000116666666667 -0.004134375 0.587961
355 1 -0.031303125 0.000116666666667 -0.002953125 0.553444
356 1 -0.031303125 0.000116666666667 -0.001771875 0.595011
357 1 -0.031303125 0.000116666666667 -0.000590625 0.563943
358 1 -0.031303125 0.000116666666667 0.000590625 0.60443
359 1 -0.031303125 0.000116666666667 0.001771875 0.573665
360 1 -0.031303125 0.000116666666667 0.002953125 0.618041
361 1 -0.031303125 0.000116666666667 0.004134375 0.583604
362 1 -0.031303125 0.000116666666667 0.005315625 0.628196
363 1 -0.031303125 0.000116666666667 0.006496875 0.586002
364 1 -0.031303125 0.000116666666667 0.007678125 0.635761
365 1 -0.031303125 0.000116666666667 0.008859375 0.578536
366 1 -0.031303125 0.000116666666667 0.010040625 0.61732
367 1 -0.031303125 0.000116666666667 0.011221875 0.540911
368 1 -0.031303125 0.000116666666667 0.012403125 0.549818
369 1 -0.031303125 0.000116666666667 0.013584375 0.459929
370 1 -0.031303125 0.000116666666667 0.014765625 0.421041
371 1 -0.031303125 0.000116666666667 0.015946875 0.348321
372 1 -0.031303125 0.000116666666667 0.017128125 0.27046
373 1 -0.031303125 0.000116666666667 0.018309375 0.236956
374 1 -0.031303125 0.000116666666667 0.019490625 0.154618
375 1 -0.030121875 -0.00261666666667 -0.020671875 0.141647
376 1 -0.030121875 -0.00261666666667 -0.019490625 0.224173
377 1 -0.030121875 -0.00261666666667 -0.018309375 0.286792
378 1 -0.030121875 -0.00261666666667 -0.017128125 0.357088
379 1 -0.030121875 -0.00261666666667 -0.015946875 0.42664
380 1 -0.030121875 -0.00261666666667 -0.014765625 0.435755
381 1 -0.030121875 -0.00261666666667 -0.013584375 0.517427
382 1 -0.030121875 -0.00261666666667 -0.012403125 0.48691
383 1 -0.030121875 -0.00261666666667 -0.011221875 0.564516
384 1 -0.030121875 -0.00261666666667 -0.010040625 0.510814
385 1 -0.030121875 -0.00261666666667 -0.008859375 0.583575
386 1 -0.030121875 -0.00261666666667 -0.007678125 0.52392
387 1 -0.030121875 -0.00261666666667 -0.006496875 0.583875
388 1 -0.030121875 -0.00261666666667 -0.005315625 0.526348
389 1 -0.030121875 -0.00261666666667 -0.004134375 0.581446
390 1 -0.030121875 -0.00261666666667 -0.002953125 0.526977
391 1 -0.030121875 -0.00261666666667 -0.001771875 0.585385
392 1 -0.030121875 -0.00261666666667 -0.000590625 0.534353
393 1 -0.030121875 -0.00261666666667 0.000590625 0.598074
394 1 -0.030121875 -0.00261666666667 0.001771875 0.544093
395 1 -0.030121875 -0.00261666666667 0.002953125 0.617174
396 1 -0.030121875 -0.00261666666667 0.004134375 0.550977
397 1 -0.030121875 -0.00261666666667 0.005315625 0.644916
398 1 -0.030121875 -0.00261666666667 0.006496875 0.556655
399 1 -0.030121875 -0.00261666666667 0.007678125 0.665519
400 1 -0.030121875 -0.00261666666667 0.008859375 0.547705
401 1 -0.030121875 -0.00261666666667 0.010040625 0.671192
402 1 -0.030121875 -0.00261666666667 0.011221875 0.515356
403 1 -0.030121875 -0.00261666666667 0.012403125 0.639068
404 1 -0.030121875 -0.00261666666667 0.013584375 0.439833
405 1 -0.030121875 -0.00261666666667 0.014765625 0.554957
406 1 -0.030121875 -0.00261666666667 0.015946875 0.339926
407 1 -0.030121875 -0.00261666666667 0.017128125 0.399932
408 1 -0.030121875 -0.00261666666667 0.018309375 0.219601
409 1 -0.030121875 -0.00261666666667 0.019490625 0.235274
410 1 -0.030121875 -0.00261666666667 0.020671875 0.136759
411 1 -0.030121875 -0.00125 -0.020671875 0.141647
412 1 -0.030121875 -0.00125 -0.019490625 0.224173
413 1 -0.030121875 -0.00125 -0.018309375 0.286792
414 1 -0.030121875 -0.00125 -0.017128125 0.357088
415 1 -0.030121875 -0.00125 -0.015946875 0.42664
416 1 -0.030121875 -0.00125 -0.014765625 0.435755
417 1 -0.030121875 -0.00125 -0.013584375 0.517427
418 1 -0.030121875 -0.00125 -0.012403125 0.48691
419 1 -0.030121875 -0.00125 -0.011221875 0.564516
420 1 -0.030121875 -0.00125 -0.010040625 0.510814
421 1 -0.030121875 -0.00125 -0.008859375 0.583575
422 1 -0.030121875 -0.00125 -0.007678125 0.52392
423 1 -0.030121875 -0.00125 -0.006496875 0.583875
424 1 -0.030121875 -0.00125 -0.005315625 0.526348
425 1 -0.030121875 -0.00125 -0.004134375 0.581446
426 1 -0.030121875 -0.00125 -0.002953125 0.526977
427 1 -0.030121875 -0.00125 -0.001771875 0.585385
428 1 -0.030121875 -0.00125 -0.000590625 0.534353
429 1 -0.030121875 -0.00125 0.000590625 0.598074
430 1 -0.030121875 -0.00125 0.001771875 0.544093
431 1 -0.030121875 -0.00125 0.002953125 0.617174
432 1 -0.030121875 -0.00125 0.004134375 0.550977
433 1 -0.030121875 -0.00125 0.005315625 0.644916
434 1 -0.030121875 -0.00125 0.006496875 0.556655
435 1 -0.030121875 -0.00125 0.007678125 0.665519
436 1 -0.030121875 -0.00125 0.008859375 0.547705
437 1 -0.030121875 -0.00125 0.010040625 0.671192
438 1 -0.030121875 -0.00125 0.011221875 0.515356
439 1 -0.030121875 -0.00125 0.012403125 0.639068
440 1 -0.030121875 -0.00125 0.013584375 0.439833
441 1 -0.030121875 -0.00125 0.014765625 0.554957
442 1 -0.030121875 -0.00125 0.015946875 0.339926
443 1 -0.030121875 -0.00125 0.017128125 0.399932
444 1 -0.030121875 -0.00125 0.018309375 0.219601
445 1 -0.030121875 -0.00125 0.019490625 0.235274
446 1 -0.030121875 -0.00125 0.020671875 0.136759
447 1 -0.030121875 0.000116666666667 -0.020671875 0.141647
448 1 -0.030121875 0.000116666666667 -0.019490625 0.224173
449 1 -0.030121875 0.000116666666667 -0.018309375 0.286792
450 1 -0.030121875 0.000116666666667 -0.017128125 0.357088
451 1 -0.030121875 0.000116666666667 -0.015946875 0.42664
452 1 -0.030121875 0.000116666666667 -0.014765625 0.435755
453 1 -0.030121875 0.000116666666667 -0.013584375 0.517427
454 1 -0.030121875 0.000116666666667 -0.012403125 0.48691
455 1 -0.030121875 0.000116666666667 -0.011221875 0.564516
456 1 -0.030121875 0.000116666666667 -0.010040625 0.510814
457 1 -0.030121875 0.000116666666667 -0.008859375 0.583575
458 1 -0.030121875 0.000116666666667 -0.007678125 0.52392
459 1 -0.030121875 0.000116666666667 -0.006496875 0.583875
460 1 -0.030121875 0.000116666666667 -0.005315625 0.526348
461 1 -0.030121875 0.000116666666667 -0.004134375 0.581446
462 1 -0.030121875 0.000116666666667 -0.002953125 0.526977
463 1 -0.030121875 0.000116666666667 -0.001771875 0.585385
464 1 -0.030121875 0.000116666666667 -0.000590625 0.534353
465 1 -0.030121875 0.000116666666667 0.000590625 0.598074
466 1 -0.030121875 0.000116666666667 0.001771875 0.544093
467 1 -0.030121875 0.000116666666667 0.002953125 0.617174
468 1 -0.030121875 0.000116666666667 0.004134375 0.550977
469 1 -0.030121875 0.000116666666667 0.005315625 0.644916
470 1 -0.030121875 0.000116666666667 0.006496875 0.556655
471 1 -0.030121875 0.000116666666667 0.007678125 0.665519
472 1 -0.030121875 0.000116666666667 0.008859375 0.547705
473 1 -0.030121875 0.000116666666667 0.010040625 0.671192
474 1 -0.030121875 0.000116666666667 0.011221875 0.515356
475 1 -0.030121875 0.000116666666667 0.012403125 0.639068
476 1 -0.030121875 0.000116666666667 0.013584375 0.439833
477 1 -0.030121875 0.000116666666667 0.014765625 0.554957
478 1 -0.030121875 0.000116666666667 0.015946875 0.339926
479 1 -0.030121875 0.000116666666667 0.017128125 0.399932
480 1 -0.030121875 0.000116666666667 0.018309375 0.219601
481 1 -0.030121875 0.000116666666667 0.019490625 0.235274
482 1 -0.030121875 0.000116666666667 0.020671875 0.136759
483 1 -0.028940625 -0.00261666666667 -0.021853125 0.246355
484 1 -0.028940625 -0.00261666666667 -0.020671875 0.22974
485 1 -0.028940625 -0.00261666666667 -0.019490625 0.387055
486 1 -0.028940625 -0.00261666666667 -0.018309375 0.411609
487 1 -0.028940625 -0.00261666666667 -0.017128125 0.502075
488 1 -0.028940625 -0.00261666666667 -0.015946875 0.53909
489 1 -0.028940625 -0.00261666666667 -0.014765625 0.549826
490 1 -0.028940625 -0.00261666666667 -0.013584375 0.577561
491 1 -0.028940625 -0.00261666666667 -0.012403125 0.569043
492 1 -0.028940625 -0.00261666666667 -0.011221875 0.592078
493 1 -0.028940625 -0.00261666666667 -0.010040625 0.577886
494 1 -0.028940625 -0.00261666666667 -0.008859375 0.596654
495 1 -0.028940625 -0.00261666666667 -0.007678125 0.578439
496 1 -0.028940625 -0.00261666666667 -0.006496875 0.597299
497 1 -0.028940625 -0.00261666666667 -0.005315625 0.579255
498 1 -0.028940625 -0.00261666666667 -0.004134375 0.596888
499 1 -0.028940625 -0.00261666666667 -0.002953125 0.581646
500 1 -0.028940625 -0.00261666666667 -0.001771875 0.602469
501 1 -0.028940625 -0.00261666666667 -0.000590625 0.592113
502 1 -0.028940625 -0.00261666666667 0.000590625 0.612556
503 1 -0.028940625 -0.00261666666667 0.001771875 0.60335
504 1 -0.028940625 -0.00261666666667 0.002953125 0.627314
505 1 -0.028940625 -0.00261666666667 0.004134375 0.615945
506 1 -0.028940625 -0.00261666666667 0.005315625 0.639749
507 1 -0.028940625 -0.00261666666667 0.006496875 0.622472
508 1 -0.028940625 -0.00261666666667 0.007678125 0.650208
509 1 -0.028940625 -0.00261666666667 0.008859375 0.620708
510 1 -0.028940625 -0.00261666666667 0.010040625 0.653458
511 1 -0.028940625 -0.00261666666667 0.011221875 0.605431
512 1 -0.028940625 -0.00261666666667 0.012403125 0.649086
513 1 -0.028940625 -0.00261666666667 0.013584375 0.57324
514 1 -0.028940625 -0.00261666666667 0.014765625 0.61514
515 1 -0.028940625 -0.00261666666667 0.015946875 0.513408
516 1 -0.028940625 -0.00261666666667 0.017128125 0.516481
517 1 -0.028940625 -0.00261666666667 0.018309375 0.400716
518 1 -0.028940625 -0.00261666666667 0.019490625 0.358024
519 1 -0.028940625 -0.00261666666667 0.020671875 0.288708
520 1 -0.028940625 -0.00261666666667 0.021853125 0.224087
521 1 -0.028940625 -0.00125 -0.021853125 0.246355
522 1 -0.028940625 -0.00125 -0.020671875 0.22974
523 1 -0.028940625 -0.00125 -0.019490625 0.387055
524 1 -0.028940625 -0.00125 -0.018309375 0.411609
525 1 -0.028940625 -0.00125 -0.017128125 0.502075
526 1 -0.028940625 -0.00125 -0.015946875 0.53909
527 1 -0.028940625 -0.00125 -0.014765625 0.549826
528 1 -0.028940625 -0.00125 -0.013584375 0.577561
529 1 -0.028940625 -0.00125 -0.012403125 0.569043
530 1 -0.028940625 -0.00125 -0.011221875 0.592078
531 1 -0.028940625 -0.00125 -0.010040625 0.577886
532 1 -0.028940625 -0.00125 -0.008859375 0.596654
533 1 -0.028940625 -0.00125 -0.007678125 0.578439
534 1 -0.028940625 -0.00125 -0.006496875 0.597299
535 1 -0.028940625 -0.00125 -0.005315625 0.579255
536 1 -0.028940625 -0.00125 -0.004134375 0.596888
537 1 -0.028940625 -0.00125 -0.002953125 0.581646