ITEM: TIMESTEP
0
ITEM: NUMBER OF ATOMS
9240
ITEM: BOX BOUNDS ss ss ss
-3.7007399999999996e-02 3.7007399999999996e-02
-2.0002499999999999e-03 2.5000000000000004e-07
-3.7007399999999996e-02 3.7007399999999996e-02
ITEM: ATOMS id type x y z c_1
0 1 -0.037209375 -0.00261666666667 -0.000590625 0.302922
1 1 -0.037209375 -0.00125 -0.000590625 0.302922
2 1 -0.037209375 0.000116666666667 -0.000590625 0.302922
3 1 -0.036028125 -0.00261666666667 -0.007678125 0.248635
4 1 -0.036028125 -0.00261666666667 -0.006496875 0.15283
5 1 -0.036028125 -0.00261666666667 -0.005315625 0.26448
6 1 -0.036028125 -0.00261666666667 -0.004134375 0.16905
7 1 -0.036028125 -0.00261666666667 -0.002953125 0.280459
8 1 -0.036028125 -0.00261666666667 -0.001771875 0.186172
9 1 -0.036028125 -0.00261666666667 -0.000590625 0.29695
10 1 -0.036028125 -0.00261666666667 0.000590625 0.199584
11 1 -0.036028125 -0.00261666666667 0.001771875 0.306987
12 1 -0.036028125 -0.00261666666667 0.002953125 0.203206
13 1 -0.036028125 -0.00261666666667 0.004134375 0.303588
14 1 -0.036028125 -0.00261666666667 0.005315625 0.191092
15 1 -0.036028125 -0.00261666666667 0.006496875 0.284473
16 1 -0.036028125 -0.00261666666667 0.007678125 0.167041
17 1 -0.036028125 -0.00125 -0.007678125 0.248635
18 1 -0.036028125 -0.00125 -0.006496875 0.15283
19 1 -0.036028125 -0.00125 -0.005315625 0.26448
20 1 -0.036028125 -0.00125 -0.004134375 0.16905
21 1 -0.036028125 -0.00125 -0.002953125 0.280459
22 1 -0.036028125 -0.00125 -0.001771875 0.186172
23 1 -0.036028125 -0.00125 -0.000590625 0.29695
24 1 -0.036028125 -0.00125 0.000590625 0.199584
25 1 -0.036028125 -0.00125 0.001771875 0.306987
26 1 -0.036028125 -0.00125 0.002953125 0.203206
27 1 -0.036028125 -0.00125 0.004134375 0.303588
28 1 -0.036028125 -0.00125 0.005315625 0.191092
29 1 -0.036028125 -0.00125 0.006496875 0.284473
30 1 -0.036028125 -0.00125 0.007678125 0.167041
31 1 -0.036028125 0.000116666666667 -0.007678125 0.248635
32 1 -0.036028125 0.000116666666667 -0.006496875 0.15283
33 1 -0.036028125 0.000116666666667 -0.005315625 0.26448
34 1 -0.036028125 0.000116666666667 -0.004134375 0.16905
35 1 -0.036028125 0.000116666666667 -0.002953125 0.280459
36 1 -0.036028125 0.000116666666667 -0.001771875 0.186172
37 1 -0.036028125 0.000116666666667 -0.000590625 0.29695
38 1 -0.036028125 0.000116666666667 0.000590625 0.199584
39 1 -0.036028125 0.000116666666667 0.001771875 0.306987
40 1 -0.036028125 0.000116666666667 0.002953125 0.203206
41 1 -0.036028125 0.000116666666667 0.004134375 0.303588
42 1 -0.036028125 0.000116666666667 0.005315625 0.191092
43 1 -0.036028125 0.000116666666667 0.006496875 0.284473
44 1 -0.036028125 0.000116666666667 0.007678125 0.167041
45 1 -0.034846875 -0.00261666666667 -0.011221875 0.131818
46 1 -0.034846875 -0.00261666666667 -0.010040625 0.173021
47 1 -0.034846875 -0.00261666666667 -0.008859375 0.154612
48 1 -0.034846875 -0.00261666666667 -0.007678125 0.191399
49 1 -0.034846875 -0.00261666666667 -0.006496875 0.175388
50 1 -0.034846875 -0.00261666666667 -0.005315625 0.20779
51 1 -0.034846875 -0.00261666666667 -0.004134375 0.196672
52 1 -0.034846875 -0.00261666666667 -0.002953125 0.224969
53 1 -0.034846875 -0.00261666666667 -0.001771875 0.21944
54 1 -0.034846875 -0.00261666666667 -0.000590625 0.240981
55 1 -0.034846875 -0.00261666666667 0.000590625 0.24047
56 1 -0.034846875 -0.00261666666667 0.001771875 0.249744
57 1 -0.034846875 -0.00261666666667 0.002953125 0.249897
58 1 -0.034846875 -0.00261666666667 0.004134375 0.242308
59 1 -0.034846875 -0.00261666666667 0.005315625 0.241863
60 1 -0.034846875 -0.00261666666667 0.006496875 0.220985
61 1 -0.034846875 -0.00261666666667 0.007678125 0.211272
62 1 -0.034846875 -0.00261666666667 0.008859375 0.185439
63 1 -0.034846875 -0.00261666666667 0.010040625 0.168987
64 1 -0.034846875 -0.00261666666667 0.011221875 0.1477
65 1 -0.034846875 -0.00125 -0.011221875 0.131818
66 1 -0.034846875 -0.00125 -0.010040625 0.173021
67 1 -0.034846875 -0.00125 -0.008859375 0.154612
68 1 -0.034846875 -0.00125 -0.007678125 0.191399
69 1 -0.034846875 -0.00125 -0.006496875 0.175388
70 1 -0.034846875 -0.00125 -0.005315625 0.20779
71 1 -0.034846875 -0.00125 -0.004134375 0.196672
72 1 -0.034846875 -0.00125 -0.002953125 0.224969
73 1 -0.034846875 -0.00125 -0.001771875 0.21944
74 1 -0.034846875 -0.00125 -0.000590625 0.240981
75 1 -0.034846875 -0.00125 0.000590625 0.24047
76 1 -0.034846875 -0.00125 0.001771875 0.249744
77 1 -0.034846875 -0.00125 0.002953125 0.249897
78 1 -0.034846875 -0.00125 0.004134375 0.242308
79 1 -0.034846875 -0.00125 0.005315625 0.241863
80 1 -0.034846875 -0.00125 0.006496875 0.220985
81 1 -0.034846875 -0.00125 0.007678125 0.211272
82 1 -0.034846875 -0.00125 0.008859375 0.185439
83 1 -0.034846875 -0.00125 0.010040625 0.168987
84 1 -0.034846875 -0.00125 0.011221875 0.1477
85 1 -0.034846875 0.000116666666667 -0.011221875 0.131818
86 1 -0.034846875 0.000116666666667 -0.010040625 0.173021
87 1 -0.034846875 0.000116666666667 -0.008859375 0.154612
88 1 -0.034846875 0.000116666666667 -0.007678125 0.191399
89 1 -0.034846875 0.000116666666667 -0.006496875 0.175388
90 1 -0.034846875 0.000116666666667 -0.005315625 0.20779
91 1 -0.034846875 0.000116666666667 -0.004134375 0.196672
92 1 -0.034846875 0.000116666666667 -0.002953125 0.224969
93 1 -0.034846875 0.000116666666667 -0.001771875 0.21944
94 1 -0.034846875 0.000116666666667 -0.000590625 0.240981
95 1 -0.034846875 0.000116666666667 0.000590625 0.24047
96 1 -0.034846875 0.000116666666667 0.001771875 0.249744
97 1 -0.034846875 0.000116666666667 0.002953125 0.249897
98 1 -0.034846875 0.000116666666667 0.004134375 0.242308
99 1 -0.034846875 0.000116666666667 0.005315625 0.241863
100 1 -0.034846875 0.000116666666667 0.006496875 0.220985
101 1 -0.034846875 0.000116666666667 0.007678125 0.211272
102 1 -0.034846875 0.000116666666667 0.008859375 0.185439
103 1 -0.034846875 0.000116666666667 0.010040625 0.168987
104 1 -0.034846875 0.000116666666667 0.011221875 0.1477
105 1 -0.033665625 -0.00261666666667 -0.013584375 0.162892
106 1 -0.033665625 -0.00261666666667 -0.012403125 0.282113
107 1 -0.033665625 -0.00261666666667 -0.011221875 0.20997
108 1 -0.033665625 -0.00261666666667 -0.010040625 0.320051
109 1 -0.033665625 -0.00261666666667 -0.008859375 0.249577
110 1 -0.033665625 -0.00261666666667 -0.007678125 0.347846
111 1 -0.033665625 -0.00261666666667 -0.006496875 0.284018
112 1 -0.033665625 -0.00261666666667 -0.005315625 0.373383
113 1 -0.033665625 -0.00261666666667 -0.004134375 0.314942
114 1 -0.033665625 -0.00261666666667 -0.002953125 0.396314
115 1 -0.033665625 -0.00261666666667 -0.001771875 0.345733
116 1 -0.033665625 -0.00261666666667 -0.000590625 0.419437
117 1 -0.033665625 -0.00261666666667 0.000590625 0.37029
118 1 -0.033665625 -0.00261666666667 0.001771875 0.434814
119 1 -0.033665625 -0.00261666666667 0.002953125 0.37991
120 1 -0.033665625 -0.00261666666667 0.004134375 0.433897
121 1 -0.033665625 -0.00261666666667 0.005315625 0.364862
122 1 -0.033665625 -0.00261666666667 0.006496875 0.412505
123 1 -0.033665625 -0.00261666666667 0.007678125 0.324418
124 1 -0.033665625 -0.00261666666667 0.008859375 0.367524
125 1 -0.033665625 -0.00261666666667 0.010040625 0.259919
126 1 -0.033665625 -0.00261666666667 0.011221875 0.302593
127 1 -0.033665625 -0.00261666666667 0.012403125 0.188238
128 1 -0.033665625 -0.00261666666667 0.013584375 0.232514
129 1 -0.033665625 -0.00125 -0.013584375 0.162892
130 1 -0.033665625 -0.00125 -0.012403125 0.282113
131 1 -0.033665625 -0.00125 -0.011221875 0.20997
132 1 -0.033665625 -0.00125 -0.010040625 0.320051
133 1 -0.033665625 -0.00125 -0.008859375 0.249577
134 1 -0.033665625 -0.00125 -0.007678125 0.347846
135 1 -0.033665625 -0.00125 -0.006496875 0.284018
136 1 -0.033665625 -0.00125 -0.005315625 0.373383
137 1 -0.033665625 -0.00125 -0.004134375 0.314942
138 1 -0.033665625 -0.00125 -0.002953125 0.396314
139 1 -0.033665625 -0.00125 -0.001771875 0.345733
140 1 -0.033665625 -0.00125 -0.000590625 0.419437
141 1 -0.033665625 -0.00125 0.000590625 0.37029
142 1 -0.033665625 -0.00125 0.001771875 0.434814
143 1 -0.033665625 -0.00125 0.002953125 0.37991
144 1 -0.033665625 -0.00125 0.004134375 0.433897
145 1 -0.033665625 -0.00125 0.005315625 0.364862
146 1 -0.033665625 -0.00125 0.006496875 0.412505
147 1 -0.033665625 -0.00125 0.007678125 0.324418
148 1 -0.033665625 -0.00125 0.008859375 0.367524
149 1 -0.033665625 -0.00125 0.010040625 0.259919
150 1 -0.033665625 -0.00125 0.011221875 0.302593
151 1 -0.033665625 -0.00125 0.012403125 0.188238
152 1 -0.033665625 -0.00125 0.013584375 0.232514
153 1 -0.033665625 0.000116666666667 -0.013584375 0.162892
154 1 -0.033665625 0.000116666666667 -0.012403125 0.282113
155 1 -0.033665625 0.000116666666667 -0.011221875 0.20997
156 1 -0.033665625 0.000116666666667 -0.010040625 0.320051
157 1 -0.033665625 0.000116666666667 -0.008859375 0.249577
158 1 -0.033665625 0.000116666666667 -0.007678125 0.347846
159 1 -0.033665625 0.000116666666667 -0.006496875 0.284018
160 1 -0.033665625 0.000116666666667 -0.005315625 0.373383
161 1 -0.033665625 0.000116666666667 -0.004134375 0.314942
162 1 -0.033665625 0.000116666666667 -0.002953125 0.396314
163 1 -0.033665625 0.000116666666667 -0.001771875 0.345733
164 1 -0.033665625 0.000116666666667 -0.000590625 0.419437
165 1 -0.033665625 0.000116666666667 0.000590625 0.37029
166 1 -0.033665625 0.000116666666667 0.001771875 0.434814
167 1 -0.033665625 0.000116666666667 0.002953125 0.37991
168 1 -0.033665625 0.000116666666667 0.004134375 0.433897
169 1 -0.033665625 0.000116666666667 0.005315625 0.364862
170 1 -0.033665625 0.000116666666667 0.006496875 0.412505
171 1 -0.033665625 0.000116666666667 0.007678125 0.324418
172 1 -0.033665625 0.000116666666667 0.008859375 0.367524
173 1 -0.033665625 0.000116666666667 0.010040625 0.259919
174 1 -0.033665625 0.000116666666667 0.011221875 0.302593
175 1 -0.033665625 0.000116666666667 0.012403125 0.188238
176 1 -0.033665625 0.000116666666667 0.013584375 0.232514
177 1 -0.032484375 -0.00261666666667 -0.018309375 0.108748
178 1 -0.032484375 -0.00261666666667 -0.017128125 0.163306
179 1 -0.032484375 -0.00261666666667 -0.015946875 0.176252
180 1 -0.032484375 -0.00261666666667 -0.014765625 0.221632
181 1 -0.032484375 -0.00261666666667 -0.013584375 0.248798
182 1 -0.032484375 -0.00261666666667 -0.012403125 0.27573
183 1 -0.032484375 -0.00261666666667 -0.011221875 0.310925
184 1 -0.032484375 -0.00261666666667 -0.010040625 0.313887
185 1 -0.032484375 -0.00261666666667 -0.008859375 0.357241
186 1 -0.032484375 -0.00261666666667 -0.007678125 0.343552
187 1 -0.032484375 -0.00261666666667 -0.006496875 0.391788
188 1 -0.032484375 -0.00261666666667 -0.005315625 0.364899
189 1 -0.032484375 -0.00261666666667 -0.004134375 0.421905
190 1 -0.032484375 -0.00261666666667 -0.002953125 0.382578
191 1 -0.032484375 -0.00261666666667 -0.001771875 0.448296
192 1 -0.032484375 -0.00261666666667 -0.000590625 0.399696
193 1 -0.032484375 -0.00261666666667 0.000590625 0.473893
194 1 -0.032484375 -0.00261666666667 0.001771875 0.41192
195 1 -0.032484375 -0.00261666666667 0.002953125 0.49006
196 1 -0.032484375 -0.00261666666667 0.004134375 0.407108
197 1 -0.032484375 -0.00261666666667 0.005315625 0.494512
198 1 -0.032484375 -0.00261666666667 0.006496875 0.388326
199 1 -0.032484375 -0.00261666666667 0.007678125 0.466568
200 1 -0.032484375 -0.00261666666667 0.008859375 0.342432
201 1 -0.032484375 -0.00261666666667 0.010040625 0.399829
202 1 -0.032484375 -0.00261666666667 0.011221875 0.274353
203 1 -0.032484375 -0.00261666666667 0.012403125 0.30375
204 1 -0.032484375 -0.00261666666667 0.013584375 0.196492
205 1 -0.032484375 -0.00261666666667 0.014765625 0.201198
206 1 -0.032484375 -0.00261666666667 0.015946875 0.130579
207 1 -0.032484375 -0.00261666666667 0.017128125 0.122494
208 1 -0.032484375 -0.00261666666667 0.018309375 0.0858652
209 1 -0.032484375 -0.00125 -0.018309375 0.108748
210 1 -0.032484375 -0.00125 -0.017128125 0.163306
211 1 -0.032484375 -0.00125 -0.015946875 0.176252
212 1 -0.032484375 -0.00125 -0.014765625 0.221632
213 1 -0.032484375 -0.00125 -0.013584375 0.248798
214 1 -0.032484375 -0.00125 -0.012403125 0.27573
215 1 -0.032484375 -0.00125 -0.011221875 0.310925
216 1 -0.032484375 -0.00125 -0.010040625 0.313887
217 1 -0.032484375 -0.00125 -0.008859375 0.357241
218 1 -0.032484375 -0.00125 -0.007678125 0.343552
219 1 -0.032484375 -0.00125 -0.006496875 0.391788
220 1 -0.032484375 -0.00125 -0.005315625 0.364899
221 1 -0.032484375 -0.00125 -0.004134375 0.421905
222 1 -0.032484375 -0.00125 -0.002953125 0.382578
223 1 -0.032484375 -0.00125 -0.001771875 0.448296
224 1 -0.032484375 -0.00125 -0.000590625 0.399696
225 1 -0.032484375 -0.00125 0.000590625 0.473893
226 1 -0.032484375 -0.00125 0.001771875 0.41192
227 1 -0.032484375 -0.00125 0.002953125 0.49006
228 1 -0.032484375 -0.00125 0.004134375 0.407108
229 1 -0.032484375 -0.00125 0.005315625 0.494512
230 1 -0.032484375 -0.00125 0.006496875 0.388326
231 1 -0.032484375 -0.00125 0.007678125 0.466568
232 1 -0.032484375 -0.00125 0.008859375 0.342432
233 1 -0.032484375 -0.00125 0.010040625 0.399829
234 1 -0.032484375 -0.00125 0.011221875 0.274353
235 1 -0.032484375 -0.00125 0.012403125 0.30375
236 1 -0.032484375 -0.00125 0.013584375 0.196492
237 1 -0.032484375 -0.00125 0.014765625 0.201198
238 1 -0.032484375 -0.00125 0.015946875 0.130579
239 1 -0.032484375 -0.00125 0.017128125 0.122494
240 1 -0.032484375 -0.00125 0.018309375 0.0858652
241 1 -0.032484375 0.000116666666667 -0.018309375 0.108748
242 1 -0.032484375 0.000116666666667 -0.017128125 0.163306
243 1 -0.032484375 0.000116666666667 -0.015946875 0.176252
244 1 -0.032484375 0.000116666666667 -0.014765625 0.221632
245 1 -0.032484375 0.000116666666667 -0.013584375 0.248798
246 1 -0.032484375 0.000116666666667 -0.012403125 0.27573
247 1 -0.032484375 0.000116666666667 -0.011221875 0.310925
248 1 -0.032484375 0.000116666666667 -0.010040625 0.313887
249 1 -0.032484375 0.000116666666667 -0.008859375 0.357241
250 1 -0.032484375 0.000116666666667 -0.007678125 0.343552
251 1 -0.032484375 0.000116666666667 -0.006496875 0.391788
252 1 -0.032484375 0.000116666666667 -0.005315625 0.364899
253 1 -0.032484375 0.000116666666667 -0.004134375 0.421905
254 1 -0.032484375 0.000116666666667 -0.002953125 0.382578
255 1 -0.032484375 0.000116666666667 -0.001771875 0.448296
256 1 -0.032484375 0.000116666666667 -0.000590625 0.399696
257 1 -0.032484375 0.000116666666667 0.000590625 0.473893
258 1 -0.032484375 0.000116666666667 0.001771875 0.41192
259 1 -0.032484375 0.000116666666667 0.002953125 0.49006
260 1 -0.032484375 0.000116666666667 0.004134375 0.407108
261 1 -0.032484375 0.000116666666667 0.005315625 0.494512
262 1 -0.032484375 0.000116666666667 0.006496875 0.388326
263 1 -0.032484375 0.000116666666667 0.007678125 0.466568
264 1 -0.032484375 0.000116666666667 0.008859375 0.342432
265 1 -0.032484375 0.000116666666667 0.010040625 0.399829
266 1 -0.032484375 0.000116666666667 0.011221875 0.274353
267 1 -0.032484375 0.000116666666667 0.012403125 0.30375
268 1 -0.032484375 0.000116666666667 0.013584375 0.196492
269 1 -0.032484375 0.000116666666667 0.014765625 0.201198
270 1 -0.032484375 0.000116666666667 0.015946875 0.130579
271 1 -0.032484375 0.000116666666667 0.017128125 0.122494
272 1 -0.032484375 0.000116666666667 0.018309375 0.0858652
273 1 -0.031303125 -0.00261666666667 -0.019490625 0.229687
274 1 -0.031303125 -0.00261666666667 -0.018309375 0.201725
275 1 -0.031303125 -0.00261666666667 -0.017128125 0.319406
276 1 -0.031303125 -0.00261666666667 -0.015946875 0.315351
277 1 -0.031303125 -0.00261666666667 -0.014765625 0.403412
278 1 -0.031303125 -0.00261666666667 -0.013584375 0.413896
279 1 -0.031303125 -0.00261666666667 -0.012403125 0.460977
280 1 -0.031303125 -0.00261666666667 -0.011221875 0.481093
281 1 -0.031303125 -0.00261666666667 -0.010040625 0.495213
282 1 -0.031303125 -0.00261666666667 -0.008859375 0.520423
283 1 -0.031303125 -0.00261666666667 -0.007678125 0.515626
284 1 -0.031303125 -0.00261666666667 -0.006496875 0.546444
285 1 -0.031303125 -0.00261666666667 -0.005315625 0.53025
286 1 -0.031303125 -0.00261666666667 -0.004134375 0.55947
287 1 -0.031303125 -0.00261666666667 -0.002953125 0.542809
288 1 -0.031303125 -0.00261666666667 -0.001771875 0.572764
289 1 -0.031303125 -0.00261666666667 -0.000590625 0.55889
290 1 -0.031303125 -0.00261666666667 0.000590625 0.587634
291 1 -0.031303125 -0.00261666666667 0.001771875 0.572564
292 1 -0.031303125 -0.00261666666667 0.002953125 0.601489
293 1 -0.031303125 -0.00261666666667 0.004134375 0.578924
294 1 -0.031303125 -0.00261666666667 0.005315625 0.606971
295 1 -0.031303125 -0.00261666666667 0.006496875 0.572993
296 1 -0.031303125 -0.00261666666667 0.007678125 0.595626
297 1 -0.031303125 -0.00261666666667 0.008859375 0.547374
298 1 -0.031303125 -0.00261666666667 0.010040625 0.549397
299 1 -0.031303125 -0.00261666666667 0.011221875 0.490472
300 1 -0.031303125 -0.00261666666667 0.012403125 0.460628
301 1 -0.031303125 -0.00261666666667 0.013584375 0.406534
302 1 -0.031303125 -0.00261666666667 0.014765625 0.335976
303 1 -0.031303125 -0.00261666666667 0.015946875 0.30257
304 1 -0.031303125 -0.00261666666667 0.017128125 0.214752
305 1 -0.031303125 -0.00261666666667 0.018309375 0.212214
306 1 -0.031303125 -0.00261666666667 0.019490625 0.130354
307 1 -0.031303125 -0.00125 -0.019490625 0.229687
308 1 -0.031303125 -0.00125 -0.018309375 0.201725
309 1 -0.031303125 -0.00125 -0.017128125 0.319406
310 1 -0.031303125 -0.00125 -0.015946875 0.315351
311 1 -0.031303125 -0.00125 -0.014765625 0.403412
312 1 -0.031303125 -0.00125 -0.013584375 0.413896
313 1 -0.031303125 -0.00125 -0.012403125 0.460977
314 1 -0.031303125 -0.00125 -0.011221875 0.481093
315 1 -0.031303125 -0.00125 -0.010040625 0.495213
316 1 -0.031303125 -0.00125 -0.008859375 0.520423
317 1 -0.031303125 -0.00125 -0.007678125 0.515626
318 1 -0.031303125 -0.00125 -0.006496875 0.546444
319 1 -0.031303125 -0.00125 -0.005315625 0.53025
320 1 -0.031303125 -0.00125 -0.004134375 0.55947
321 1 -0.031303125 -0.00125 -0.002953125 0.542809
322 1 -0.031303125 -0.00125 -0.001771875 0.572764
323 1 -0.031303125 -0.00125 -0.000590625 0.55889
324 1 -0.031303125 -0.00125 0.000590625 0.587634
325 1 -0.031303125 -0.00125 0.001771875 0.572564
326 1 -0.031303125 -0.00125 0.002953125 0.601489
327 1 -0.031303125 -0.00125 0.004134375 0.578924
328 1 -0.031303125 -0.00125 0.005315625 0.606971
329 1 -0.031303125 -0.00125 0.006496875 0.572993
330 1 -0.031303125 -0.00125 0.007678125 0.595626
331 1 -0.031303125 -0.00125 0.008859375 0.547374
332 1 -0.031303125 -0.00125 0.010040625 0.549397
333 1 -0.031303125 -0.00125 0.011221875 0.490472
334 1 -0.031303125 -0.00125 0.012403125 0.460628
335 1 -0.031303125 -0.00125 0.013584375 0.406534
336 1 -0.031303125 -0.00125 0.014765625 0.335976
337 1 -0.031303125 -0.00125 0.015946875 0.30257
338 1 -0.031303125 -0.00125 0.017128125 0.214752
339 1 -0.031303125 -0.00125 0.018309375 0.212214
340 1 -0.031303125 -0.00125 0.019490625 0.130354
341 1 -0.031303125 0.000116666666667 -0.019490625 0.229687
342 1 -0.031303125 0.000116666666667 -0.018309375 0.201725
343 1 -0.031303125 0.000116666666667 -0.017128125 0.319406
344 1 -0.031303125 0.000116666666667 -0.015946875 0.315351
345 1 -0.031303125 0.000116666666667 -0.014765625 0.403412
346 1 -0.031303125 0.000116666666667 -0.013584375 0.413896
347 1 -0.031303125 0.000116666666667 -0.012403125 0.460977
348 1 -0.031303125 0.000116666666667 -0.011221875 0.481093
349 1 -0.031303125 0.000116666666667 -0.010040625 0.495213
350 1 -0.031303125 0.000116666666667 -0.008859375 0.520423
351 1 -0.031303125 0.000116666666667 -0.007678125 0.515626
352 1 -0.031303125 0.000116666666667 -0.006496875 0.546444
353 1 -0.031303125 0.000116666666667 -0.005315625 0.53025
354 1 -0.031303125 0.000116666666667 -0.004134375 0.55947
355 1 -0.031303125 0.000116666666667 -0.002953125 0.542809
356 1 -0.031303125 0.000116666666667 -0.001771875 0.572764
357 1 -0.031303125 0.000116666666667 -0.000590625 0.55889
358 1 -0.031303125 0.000116666666667 0.000590625 0.587634
359 1 -0.031303125 0.000116666666667 0.001771875 0.572564
360 1 -0.031303125 0.000116666666667 0.002953125 0.601489
361 1 -0.031303125 0.000116666666667 0.004134375 0.578924
362 1 -0.031303125 0.000116666666667 0.005315625 0.606971
363 1 -0.031303125 0.000116666666667 0.006496875 0.572993
364 1 -0.031303125 0.000116666666667 0.007678125 0.595626
365 1 -0.031303125 0.000116666666667 0.008859375 0.547374
366 1 -0.031303125 0.000116666666667 0.010040625 0.549397
367 1 -0.031303125 0.000116666666667 0.011221875 0.490472
368 1 -0.031303125 0.000116666666667 0.012403125 0.460628
369 1 -0.031303125 0.000116666666667 0.013584375 0.406534
370 1 -0.031303125 0.000116666666667 0.014765625 0.335976
371 1 -0.031303125 0.000116666666667 0.015946875 0.30257
372 1 -0.031303125 0.000116666666667 0.017128125 0.214752
373 1 -0.031303125 0.000116666666667 0.018309375 0.212214
374 1 -0.031303125 0.000116666666667 0.019490625 0.130354
375 1 -0.030121875 -0.00261666666667 -0.020671875 0.163497
376 1 -0.030121875 -0.00261666666667 -0.019490625 0.233106
377 1 -0.030121875 -0.00261666666667 -0.018309375 0.279385
378 1 -0.030121875 -0.00261666666667 -0.017128125 0.34229
379 1 -0.030121875 -0.00261666666667 -0.015946875 0.391191
380 1 -0.030121875 -0.00261666666667 -0.014765625 0.415948
381 1 -0.030121875 -0.00261666666667 -0.013584375 0.47604
382 1 -0.030121875 -0.00261666666667 -0.012403125 0.465072
383 1 -0.030121875 -0.00261666666667 -0.011221875 0.520332
384 1 -0.030121875 -0.00261666666667 -0.010040625 0.490871
385 1 -0.030121875 -0.00261666666667 -0.008859375 0.542176
386 1 -0.030121875 -0.00261666666667 -0.007678125 0.508367
387 1 -0.030121875 -0.00261666666667 -0.006496875 0.552002
388 1 -0.030121875 -0.00261666666667 -0.005315625 0.520543
389 1 -0.030121875 -0.00261666666667 -0.004134375 0.559765
390 1 -0.030121875 -0.00261666666667 -0.002953125 0.527808
391 1 -0.030121875 -0.00261666666667 -0.001771875 0.572215
392 1 -0.030121875 -0.00261666666667 -0.000590625 0.538471
393 1 -0.030121875 -0.00261666666667 0.000590625 0.591131
394 1 -0.030121875 -0.00261666666667 0.001771875 0.550193
395 1 -0.030121875 -0.00261666666667 0.002953125 0.610218
396 1 -0.030121875 -0.00261666666667 0.004134375 0.552194
397 1 -0.030121875 -0.00261666666667 0.005315625 0.630078
398 1 -0.030121875 -0.00261666666667 0.006496875 0.547261
399 1 -0.030121875 -0.00261666666667 0.007678125 0.632629
400 1 -0.030121875 -0.00261666666667 0.008859375 0.517312
401 1 -0.030121875 -0.00261666666667 0.010040625 0.611619
402 1 -0.030121875 -0.00261666666667 0.011221875 0.464891
403 1 -0.030121875 -0.00261666666667 0.012403125 0.556467
404 1 -0.030121875 -0.00261666666667 0.013584375 0.385127
405 1 -0.030121875 -0.00261666666667 0.014765625 0.450969
406 1 -0.030121875 -0.00261666666667 0.015946875 0.284452
407 1 -0.030121875 -0.00261666666667 0.017128125 0.306807
408 1 -0.030121875 -0.00261666666667 0.018309375 0.189169
409 1 -0.030121875 -0.00261666666667 0.019490625 0.188668
410 1 -0.030121875 -0.00261666666667 0.020671875 0.127038
411 1 -0.030121875 -0.00125 -0.020671875 0.163497
412 1 -0.030121875 -0.00125 -0.019490625 0.233106
413 1 -0.030121875 -0.00125 -0.018309375 0.279385
414 1 -0.030121875 -0.00125 -0.017128125 0.34229
415 1 -0.030121875 -0.00125 -0.015946875 0.391191
416 1 -0.030121875 -0.00125 -0.014765625 0.415948
417 1 -0.030121875 -0.00125 -0.013584375 0.47604
418 1 -0.030121875 -0.00125 -0.012403125 0.465072
419 1 -0.030121875 -0.00125 -0.011221875 0.520332
420 1 -0.030121875 -0.00125 -0.010040625 0.490871
421 1 -0.030121875 -0.00125 -0.008859375 0.542176
422 1 -0.030121875 -0.00125 -0.007678125 0.508367
423 1 -0.030121875 -0.00125 -0.006496875 0.552002
424 1 -0.030121875 -0.00125 -0.005315625 0.520543
425 1 -0.030121875 -0.00125 -0.004134375 0.559765
426 1 -0.030121875 -0.00125 -0.002953125 0.527808
427 1 -0.030121875 -0.00125 -0.001771875 0.572215
428 1 -0.030121875 -0.00125 -0.000590625 0.538471
429 1 -0.030121875 -0.00125 0.000590625 0.591131
430 1 -0.030121875 -0.00125 0.001771875 0.550193
431 1 -0.030121875 -0.00125 0.002953125 0.610218
432 1 -0.030121875 -0.00125 0.004134375 0.552194
433 1 -0.030121875 -0.00125 0.005315625 0.630078
434 1 -0.030121875 -0.00125 0.006496875 0.547261
435 1 -0.030121875 -0.00125 0.007678125 0.632629
436 1 -0.030121875 -0.00125 0.008859375 0.517312
437 1 -0.030121875 -0.00125 0.010040625 0.611619
438 1 -0.030121875 -0.00125 0.011221875 0.464891
439 1 -0.030121875 -0.00125 0.012403125 0.556467
440 1 -0.030121875 -0.00125 0.013584375 0.385127
441 1 -0.030121875 -0.00125 0.014765625 0.450969
442 1 -0.030121875 -0.00125 0.015946875 0.284452
443 1 -0.030121875 -0.00125 0.017128125 0.306807
444 1 -0.030121875 -0.00125 0.018309375 0.189169
445 1 -0.030121875 -0.00125 0.019490625 0.188668
446 1 -0.030121875 -0.00125 0.020671875 0.127038
447 1 -0.030121875 0.000116666666667 -0.020671875 0.163497
448 1 -0.030121875 0.000116666666667 -0.019490625 0.233106
449 1 -0.030121875 0.000116666666667 -0.018309375 0.279385
450 1 -0.030121875 0.000116666666667 -0.017128125 0.34229
451 1 -0.030121875 0.000116666666667 -0.015946875 0.391191
452 1 -0.030121875 0.000116666666667 -0.014765625 0.415948
453 1 -0.030121875 0.000116666666667 -0.013584375 0.47604
454 1 -0.030121875 0.000116666666667 -0.012403125 0.465072
455 1 -0.030121875 0.000116666666667 -0.011221875 0.520332
456 1 -0.030121875 0.000116666666667 -0.010040625 0.490871
457 1 -0.030121875 0.000116666666667 -0.008859375 0.542176
458 1 -0.030121875 0.000116666666667 -0.007678125 0.508367
459 1 -0.030121875 0.000116666666667 -0.006496875 0.552002
460 1 -0.030121875 0.000116666666667 -0.005315625 0.520543
461 1 -0.030121875 0.000116666666667 -0.004134375 0.559765
462 1 -0.030121875 0.000116666666667 -0.002953125 0.527808
463 1 -0.030121875 0.000116666666667 -0.001771875 0.572215
464 1 -0.030121875 0.000116666666667 -0.000590625 0.538471
465 1 -0.030121875 0.000116666666667 0.000590625 0.591131
466 1 -0.030121875 0.000116666666667 0.001771875 0.550193
467 1 -0.030121875 0.000116666666667 0.002953125 0.610218
468 1 -0.030121875 0.000116666666667 0.004134375 0.552194
469 1 -0.030121875 0.000116666666667 0.005315625 0.630078
470 1 -0.030121875 0.000116666666667 0.006496875 0.547261
471 1 -0.030121875 0.000116666666667 0.007678125 0.632629
472 1 -0.030121875 0.000116666666667 0.008859375 0.517312
473 1 -0.030121875 0.000116666666667 0.010040625 0.611619
474 1 -0.030121875 0.000116666666667 0.011221875 0.464891
475 1 -0.030121875 0.000116666666667 0.012403125 0.556467
476 1 -0.030121875 0.000116666666667 0.013584375 0.385127
477 1 -0.030121875 0.000116666666667 0.014765625 0.450969
478 1 -0.030121875 0.000116666666667 0.015946875 0.284452
479 1 -0.030121875 0.000116666666667 0.017128125 0.306807
480 1 -0.030121875 0.000116666666667 0.018309375 0.189169
481 1 -0.030121875 0.000116666666667 0.019490625 0.188668
482 1 -0.030121875 0.000116666666667 0.020671875 0.127038
483 1 -0.028940625 -0.00261666666667 -0.021853125 0.272556
484 1 -0.028940625 -0.00261666666667 -0.020671875 0.263499
485 1 -0.028940625 -0.00261666666667 -0.019490625 0.386845
486 1 -0.028940625 -0.00261666666667 -0.018309375 0.41417
487 1 -0.028940625 -0.00261666666667 -0.017128125 0.483693
488 1 -0.028940625 -0.00261666666667 -0.015946875 0.522104
489 1 -0.028940625 -0.00261666666667 -0.014765625 0.532356
490 1 -0.028940625 -0.00261666666667 -0.013584375 0.562033
491 1 -0.028940625 -0.00261666666667 -0.012403125 0.556987
492 1 -0.028940625 -0.00261666666667 -0.011221875 0.581987
493 1 -0.028940625 -0.00261666666667 -0.010040625 0.571229
494 1 -0.028940625 -0.00261666666667 -0.008859375 0.591388
495 1 -0.028940625 -0.00261666666667 -0.007678125 0.577712
496 1 -0.028940625 -0.00261666666667 -0.006496875 0.598175
497 1 -0.028940625 -0.00261666666667 -0.005315625 0.585381
498 1 -0.028940625 -0.00261666666667 -0.004134375 0.603519
499 1 -0.028940625 -0.00261666666667 -0.002953125 0.594195
500 1 -0.028940625 -0.00261666666667 -0.001771875 0.613337
501 1 -0.028940625 -0.00261666666667 -0.000590625 0.609046
502 1 -0.028940625 -0.00261666666667 0.000590625 0.627294
503 1 -0.028940625 -0.00261666666667 0.001771875 0.622953
504 1 -0.028940625 -0.00261666666667 0.002953125 0.641867
505 1 -0.028940625 -0.00261666666667 0.004134375 0.631591
506 1 -0.028940625 -0.00261666666667 0.005315625 0.64991
507 1 -0.028940625 -0.00261666666667 0.006496875 0.630071
508 1 -0.028940625 -0.00261666666667 0.007678125 0.649832
509 1 -0.028940625 -0.00261666666667 0.008859375 0.615344
510 1 -0.028940625 -0.00261666666667 0.010040625 0.638145
511 1 -0.028940625 -0.00261666666667 0.011221875 0.585787
512 1 -0.028940625 -0.00261666666667 0.012403125 0.615824
513 1 -0.028940625 -0.00261666666667 0.013584375 0.539629
514 1 -0.028940625 -0.00261666666667 0.014765625 0.551157
515 1 -0.028940625 -0.00261666666667 0.015946875 0.461792
516 1 -0.028940625 -0.00261666666667 0.017128125 0.435693
517 1 -0.028940625 -0.00261666666667 0.018309375 0.357529
518 1 -0.028940625 -0.00261666666667 0.019490625 0.301319
519 1 -0.028940625 -0.00261666666667 0.020671875 0.265499
520 1 -0.028940625 -0.00261666666667 0.021853125 0.199513
521 1 -0.028940625 -0.00125 -0.021853125 0.272556
522 1 -0.028940625 -0.00125 -0.020671875 0.263499
523 1 -0.028940625 -0.00125 -0.019490625 0.386845
524 1 -0.028940625 -0.00125 -0.018309375 0.41417
525 1 -0.028940625 -0.00125 -0.017128125 0.483693
526 1 -0.028940625 -0.00125 -0.015946875 0.522104
527 1 -0.028940625 -0.00125 -0.014765625 0.532356
528 1 -0.028940625 -0.00125 -0.013584375 0.562033
529 1 -0.028940625 -0.00125 -0.012403125 0.556987
530 1 -0.028940625 -0.00125 -0.011221875 0.581987
531 1 -0.028940625 -0.00125 -0.010040625 0.571229
532 1 -0.028940625 -0.00125 -0.008859375 0.591388
533 1 -0.028940625 -0.00125 -0.007678125 0.577712
534 1 -0.028940625 -0.00125 -0.006496875 0.598175
535 1 -0.028940625 -0.00125 -0.005315625 0.585381
536 1 -0.028940625 -0.00125 -0.004134375 0.603519
537 1 -0.028940625 -0.00125 -0.002953125 0.594195
538 1 -0.028940625 -0.00125 -0.001771875 0.613337