ITEM: TIMESTEP
0
ITEM: NUMBER OF ATOMS
9240
ITEM: BOX BOUNDS ss ss ss
-3.7007399999999996e-02 3.7007399999999996e-02
-2.0002499999999999e-03 2.5000000000000004e-07
-3.7007399999999996e-02 3.7007399999999996e-02
ITEM: ATOMS id type x y z c_1
0 1 -0.037209375 -0.00261666666667 -0.000590625 0.317097
1 1 -0.037209375 -0.00125 -0.000590625 0.317097
2 1 -0.037209375 0.000116666666667 -0.000590625 0.317097
3 1 -0.036028125 -0.00261666666667 -0.007678125 0.242138
4 1 -0.036028125 -0.00261666666667 -0.006496875 0.134173
5 1 -0.036028125 -0.00261666666667 -0.005315625 0.247995
6 1 -0.036028125 -0.00261666666667 -0.004134375 0.140062
7 1 -0.036028125 -0.00261666666667 -0.002953125 0.251273
8 1 -0.036028125 -0.00261666666667 -0.001771875 0.145331
9 1 -0.036028125 -0.00261666666667 -0.000590625 0.254869
10 1 -0.036028125 -0.00261666666667 0.000590625 0.148331
11 1 -0.036028125 -0.00261666666667 0.001771875 0.255025
12 1 -0.036028125 -0.00261666666667 0.002953125 0.14713
13 1 -0.036028125 -0.00261666666667 0.004134375 0.248171
14 1 -0.036028125 -0.00261666666667 0.005315625 0.138242
15 1 -0.036028125 -0.00261666666667 0.006496875 0.231696
16 1 -0.036028125 -0.00261666666667 0.007678125 0.123743
17 1 -0.036028125 -0.00125 -0.007678125 0.242138
18 1 -0.036028125 -0.00125 -0.006496875 0.134173
19 1 -0.036028125 -0.00125 -0.005315625 0.247995
20 1 -0.036028125 -0.00125 -0.004134375 0.140062
21 1 -0.036028125 -0.00125 -0.002953125 0.251273
22 1 -0.036028125 -0.00125 -0.001771875 0.145331
23 1 -0.036028125 -0.00125 -0.000590625 0.254869
24 1 -0.036028125 -0.00125 0.000590625 0.148331
25 1 -0.036028125 -0.00125 0.001771875 0.255025
26 1 -0.036028125 -0.00125 0.002953125 0.14713
27 1 -0.036028125 -0.00125 0.004134375 0.248171
28 1 -0.036028125 -0.00125 0.005315625 0.138242
29 1 -0.036028125 -0.00125 0.006496875 0.231696
30 1 -0.036028125 -0.00125 0.007678125 0.123743
31 1 -0.036028125 0.000116666666667 -0.007678125 0.242138
32 1 -0.036028125 0.000116666666667 -0.006496875 0.134173
33 1 -0.036028125 0.000116666666667 -0.005315625 0.247995
34 1 -0.036028125 0.000116666666667 -0.004134375 0.140062
35 1 -0.036028125 0.000116666666667 -0.002953125 0.251273
36 1 -0.036028125 0.000116666666667 -0.001771875 0.145331
37 1 -0.036028125 0.000116666666667 -0.000590625 0.254869
38 1 -0.036028125 0.000116666666667 0.000590625 0.148331
39 1 -0.036028125 0.000116666666667 0.001771875 0.255025
40 1 -0.036028125 0.000116666666667 0.002953125 0.14713
41 1 -0.036028125 0.000116666666667 0.004134375 0.248171
42 1 -0.036028125 0.000116666666667 0.005315625 0.138242
43 1 -0.036028125 0.000116666666667 0.006496875 0.231696
44 1 -0.036028125 0.000116666666667 0.007678125 0.123743
45 1 -0.034846875 -0.00261666666667 -0.011221875 0.125919
46 1 -0.034846875 -0.00261666666667 -0.010040625 0.199668
47 1 -0.034846875 -0.00261666666667 -0.008859375 0.1443
48 1 -0.034846875 -0.00261666666667 -0.007678125 0.211848
49 1 -0.034846875 -0.00261666666667 -0.006496875 0.15572
50 1 -0.034846875 -0.00261666666667 -0.005315625 0.216725
51 1 -0.034846875 -0.00261666666667 -0.004134375 0.164387
52 1 -0.034846875 -0.00261666666667 -0.002953125 0.219983
53 1 -0.034846875 -0.00261666666667 -0.001771875 0.17222
54 1 -0.034846875 -0.00261666666667 -0.000590625 0.222364
55 1 -0.034846875 -0.00261666666667 0.000590625 0.177609
56 1 -0.034846875 -0.00261666666667 0.001771875 0.221984
57 1 -0.034846875 -0.00261666666667 0.002953125 0.176964
58 1 -0.034846875 -0.00261666666667 0.004134375 0.213123
59 1 -0.034846875 -0.00261666666667 0.005315625 0.16934
60 1 -0.034846875 -0.00261666666667 0.006496875 0.196879
61 1 -0.034846875 -0.00261666666667 0.007678125 0.150688
62 1 -0.034846875 -0.00261666666667 0.008859375 0.172365
63 1 -0.034846875 -0.00261666666667 0.010040625 0.125507
64 1 -0.034846875 -0.00261666666667 0.011221875 0.14548
65 1 -0.034846875 -0.00125 -0.011221875 0.125919
66 1 -0.034846875 -0.00125 -0.010040625 0.199668
67 1 -0.034846875 -0.00125 -0.008859375 0.1443
68 1 -0.034846875 -0.00125 -0.007678125 0.211848
69 1 -0.034846875 -0.00125 -0.006496875 0.15572
70 1 -0.034846875 -0.00125 -0.005315625 0.216725
71 1 -0.034846875 -0.00125 -0.004134375 0.164387
72 1 -0.034846875 -0.00125 -0.002953125 0.219983
73 1 -0.034846875 -0.00125 -0.001771875 0.17222
74 1 -0.034846875 -0.00125 -0.000590625 0.222364
75 1 -0.034846875 -0.00125 0.000590625 0.177609
76 1 -0.034846875 -0.00125 0.001771875 0.221984
77 1 -0.034846875 -0.00125 0.002953125 0.176964
78 1 -0.034846875 -0.00125 0.004134375 0.213123
79 1 -0.034846875 -0.00125 0.005315625 0.16934
80 1 -0.034846875 -0.00125 0.006496875 0.196879
81 1 -0.034846875 -0.00125 0.007678125 0.150688
82 1 -0.034846875 -0.00125 0.008859375 0.172365
83 1 -0.034846875 -0.00125 0.010040625 0.125507
84 1 -0.034846875 -0.00125 0.011221875 0.14548
85 1 -0.034846875 0.000116666666667 -0.011221875 0.125919
86 1 -0.034846875 0.000116666666667 -0.010040625 0.199668
87 1 -0.034846875 0.000116666666667 -0.008859375 0.1443
88 1 -0.034846875 0.000116666666667 -0.007678125 0.211848
89 1 -0.034846875 0.000116666666667 -0.006496875 0.15572
90 1 -0.034846875 0.000116666666667 -0.005315625 0.216725
91 1 -0.034846875 0.000116666666667 -0.004134375 0.164387
92 1 -0.034846875 0.000116666666667 -0.002953125 0.219983
93 1 -0.034846875 0.000116666666667 -0.001771875 0.17222
94 1 -0.034846875 0.000116666666667 -0.000590625 0.222364
95 1 -0.034846875 0.000116666666667 0.000590625 0.177609
96 1 -0.034846875 0.000116666666667 0.001771875 0.221984
97 1 -0.034846875 0.000116666666667 0.002953125 0.176964
98 1 -0.034846875 0.000116666666667 0.004134375 0.213123
99 1 -0.034846875 0.000116666666667 0.005315625 0.16934
100 1 -0.034846875 0.000116666666667 0.006496875 0.196879
101 1 -0.034846875 0.000116666666667 0.007678125 0.150688
102 1 -0.034846875 0.000116666666667 0.008859375 0.172365
103 1 -0.034846875 0.000116666666667 0.010040625 0.125507
104 1 -0.034846875 0.000116666666667 0.011221875 0.14548
105 1 -0.033665625 -0.00261666666667 -0.013584375 0.193101
106 1 -0.033665625 -0.00261666666667 -0.012403125 0.317912
107 1 -0.033665625 -0.00261666666667 -0.011221875 0.243426
108 1 -0.033665625 -0.00261666666667 -0.010040625 0.354094
109 1 -0.033665625 -0.00261666666667 -0.008859375 0.278897
110 1 -0.033665625 -0.00261666666667 -0.007678125 0.372046
111 1 -0.033665625 -0.00261666666667 -0.006496875 0.30079
112 1 -0.033665625 -0.00261666666667 -0.005315625 0.38069
113 1 -0.033665625 -0.00261666666667 -0.004134375 0.314737
114 1 -0.033665625 -0.00261666666667 -0.002953125 0.386479
115 1 -0.033665625 -0.00261666666667 -0.001771875 0.327856
116 1 -0.033665625 -0.00261666666667 -0.000590625 0.393612
117 1 -0.033665625 -0.00261666666667 0.000590625 0.336632
118 1 -0.033665625 -0.00261666666667 0.001771875 0.395092
119 1 -0.033665625 -0.00261666666667 0.002953125 0.337207
120 1 -0.033665625 -0.00261666666667 0.004134375 0.38722
121 1 -0.033665625 -0.00261666666667 0.005315625 0.322806
122 1 -0.033665625 -0.00261666666667 0.006496875 0.367844
123 1 -0.033665625 -0.00261666666667 0.007678125 0.293049
124 1 -0.033665625 -0.00261666666667 0.008859375 0.331453
125 1 -0.033665625 -0.00261666666667 0.010040625 0.246443
126 1 -0.033665625 -0.00261666666667 0.011221875 0.280554
127 1 -0.033665625 -0.00261666666667 0.012403125 0.190909
128 1 -0.033665625 -0.00261666666667 0.013584375 0.223709
129 1 -0.033665625 -0.00125 -0.013584375 0.193101
130 1 -0.033665625 -0.00125 -0.012403125 0.317912
131 1 -0.033665625 -0.00125 -0.011221875 0.243426
132 1 -0.033665625 -0.00125 -0.010040625 0.354094
133 1 -0.033665625 -0.00125 -0.008859375 0.278897
134 1 -0.033665625 -0.00125 -0.007678125 0.372046
135 1 -0.033665625 -0.00125 -0.006496875 0.30079
136 1 -0.033665625 -0.00125 -0.005315625 0.38069
137 1 -0.033665625 -0.00125 -0.004134375 0.314737
138 1 -0.033665625 -0.00125 -0.002953125 0.386479
139 1 -0.033665625 -0.00125 -0.001771875 0.327856
140 1 -0.033665625 -0.00125 -0.000590625 0.393612
141 1 -0.033665625 -0.00125 0.000590625 0.336632
142 1 -0.033665625 -0.00125 0.001771875 0.395092
143 1 -0.033665625 -0.00125 0.002953125 0.337207
144 1 -0.033665625 -0.00125 0.004134375 0.38722
145 1 -0.033665625 -0.00125 0.005315625 0.322806
146 1 -0.033665625 -0.00125 0.006496875 0.367844
147 1 -0.033665625 -0.00125 0.007678125 0.293049
148 1 -0.033665625 -0.00125 0.008859375 0.331453
149 1 -0.033665625 -0.00125 0.010040625 0.246443
150 1 -0.033665625 -0.00125 0.011221875 0.280554
151 1 -0.033665625 -0.00125 0.012403125 0.190909
152 1 -0.033665625 -0.00125 0.013584375 0.223709
153 1 -0.033665625 0.000116666666667 -0.013584375 0.193101
154 1 -0.033665625 0.000116666666667 -0.012403125 0.317912
155 1 -0.033665625 0.000116666666667 -0.011221875 0.243426
156 1 -0.033665625 0.000116666666667 -0.010040625 0.354094
157 1 -0.033665625 0.000116666666667 -0.008859375 0.278897
158 1 -0.033665625 0.000116666666667 -0.007678125 0.372046
159 1 -0.033665625 0.000116666666667 -0.006496875 0.30079
160 1 -0.033665625 0.000116666666667 -0.005315625 0.38069
161 1 -0.033665625 0.000116666666667 -0.004134375 0.314737
162 1 -0.033665625 0.000116666666667 -0.002953125 0.386479
163 1 -0.033665625 0.000116666666667 -0.001771875 0.327856
164 1 -0.033665625 0.000116666666667 -0.000590625 0.393612
165 1 -0.033665625 0.000116666666667 0.000590625 0.336632
166 1 -0.033665625 0.000116666666667 0.001771875 0.395092
167 1 -0.033665625 0.000116666666667 0.002953125 0.337207
168 1 -0.033665625 0.000116666666667 0.004134375 0.38722
169 1 -0.033665625 0.000116666666667 0.005315625 0.322806
170 1 -0.033665625 0.000116666666667 0.006496875 0.367844
171 1 -0.033665625 0.000116666666667 0.007678125 0.293049
172 1 -0.033665625 0.000116666666667 0.008859375 0.331453
173 1 -0.033665625 0.000116666666667 0.010040625 0.246443
174 1 -0.033665625 0.000116666666667 0.011221875 0.280554
175 1 -0.033665625 0.000116666666667 0.012403125 0.190909
176 1 -0.033665625 0.000116666666667 0.013584375 0.223709
177 1 -0.032484375 -0.00261666666667 -0.018309375 0.149843
178 1 -0.032484375 -0.00261666666667 -0.017128125 0.21542
179 1 -0.032484375 -0.00261666666667 -0.015946875 0.230931
180 1 -0.032484375 -0.00261666666667 -0.014765625 0.279466
181 1 -0.032484375 -0.00261666666667 -0.013584375 0.318136
182 1 -0.032484375 -0.00261666666667 -0.012403125 0.339677
183 1 -0.032484375 -0.00261666666667 -0.011221875 0.388984
184 1 -0.032484375 -0.00261666666667 -0.010040625 0.371801
185 1 -0.032484375 -0.00261666666667 -0.008859375 0.432855
186 1 -0.032484375 -0.00261666666667 -0.007678125 0.389295
187 1 -0.032484375 -0.00261666666667 -0.006496875 0.452577
188 1 -0.032484375 -0.00261666666667 -0.005315625 0.394492
189 1 -0.032484375 -0.00261666666667 -0.004134375 0.463691
190 1 -0.032484375 -0.00261666666667 -0.002953125 0.39698
191 1 -0.032484375 -0.00261666666667 -0.001771875 0.475317
192 1 -0.032484375 -0.00261666666667 -0.000590625 0.399866
193 1 -0.032484375 -0.00261666666667 0.000590625 0.485468
194 1 -0.032484375 -0.00261666666667 0.001771875 0.40089
195 1 -0.032484375 -0.00261666666667 0.002953125 0.488377
196 1 -0.032484375 -0.00261666666667 0.004134375 0.39217
197 1 -0.032484375 -0.00261666666667 0.005315625 0.483777
198 1 -0.032484375 -0.00261666666667 0.006496875 0.375862
199 1 -0.032484375 -0.00261666666667 0.007678125 0.45511
200 1 -0.032484375 -0.00261666666667 0.008859375 0.335129
201 1 -0.032484375 -0.00261666666667 0.010040625 0.402959
202 1 -0.032484375 -0.00261666666667 0.011221875 0.281222
203 1 -0.032484375 -0.00261666666667 0.012403125 0.323704
204 1 -0.032484375 -0.00261666666667 0.013584375 0.215337
205 1 -0.032484375 -0.00261666666667 0.014765625 0.23082
206 1 -0.032484375 -0.00261666666667 0.015946875 0.155251
207 1 -0.032484375 -0.00261666666667 0.017128125 0.14894
208 1 -0.032484375 -0.00261666666667 0.018309375 0.108931
209 1 -0.032484375 -0.00125 -0.018309375 0.149843
210 1 -0.032484375 -0.00125 -0.017128125 0.21542
211 1 -0.032484375 -0.00125 -0.015946875 0.230931
212 1 -0.032484375 -0.00125 -0.014765625 0.279466
213 1 -0.032484375 -0.00125 -0.013584375 0.318136
214 1 -0.032484375 -0.00125 -0.012403125 0.339677
215 1 -0.032484375 -0.00125 -0.011221875 0.388984
216 1 -0.032484375 -0.00125 -0.010040625 0.371801
217 1 -0.032484375 -0.00125 -0.008859375 0.432855
218 1 -0.032484375 -0.00125 -0.007678125 0.389295
219 1 -0.032484375 -0.00125 -0.006496875 0.452577
220 1 -0.032484375 -0.00125 -0.005315625 0.394492
221 1 -0.032484375 -0.00125 -0.004134375 0.463691
222 1 -0.032484375 -0.00125 -0.002953125 0.39698
223 1 -0.032484375 -0.00125 -0.001771875 0.475317
224 1 -0.032484375 -0.00125 -0.000590625 0.399866
225 1 -0.032484375 -0.00125 0.000590625 0.485468
226 1 -0.032484375 -0.00125 0.001771875 0.40089
227 1 -0.032484375 -0.00125 0.002953125 0.488377
228 1 -0.032484375 -0.00125 0.004134375 0.39217
229 1 -0.032484375 -0.00125 0.005315625 0.483777
230 1 -0.032484375 -0.00125 0.006496875 0.375862
231 1 -0.032484375 -0.00125 0.007678125 0.45511
232 1 -0.032484375 -0.00125 0.008859375 0.335129
233 1 -0.032484375 -0.00125 0.010040625 0.402959
234 1 -0.032484375 -0.00125 0.011221875 0.281222
235 1 -0.032484375 -0.00125 0.012403125 0.323704
236 1 -0.032484375 -0.00125 0.013584375 0.215337
237 1 -0.032484375 -0.00125 0.014765625 0.23082
238 1 -0.032484375 -0.00125 0.015946875 0.155251
239 1 -0.032484375 -0.00125 0.017128125 0.14894
240 1 -0.032484375 -0.00125 0.018309375 0.108931
241 1 -0.032484375 0.000116666666667 -0.018309375 0.149843
242 1 -0.032484375 0.000116666666667 -0.017128125 0.21542
243 1 -0.032484375 0.000116666666667 -0.015946875 0.230931
244 1 -0.032484375 0.000116666666667 -0.014765625 0.279466
245 1 -0.032484375 0.000116666666667 -0.013584375 0.318136
246 1 -0.032484375 0.000116666666667 -0.012403125 0.339677
247 1 -0.032484375 0.000116666666667 -0.011221875 0.388984
248 1 -0.032484375 0.000116666666667 -0.010040625 0.371801
249 1 -0.032484375 0.000116666666667 -0.008859375 0.432855
250 1 -0.032484375 0.000116666666667 -0.007678125 0.389295
251 1 -0.032484375 0.000116666666667 -0.006496875 0.452577
252 1 -0.032484375 0.000116666666667 -0.005315625 0.394492
253 1 -0.032484375 0.000116666666667 -0.004134375 0.463691
254 1 -0.032484375 0.000116666666667 -0.002953125 0.39698
255 1 -0.032484375 0.000116666666667 -0.001771875 0.475317
256 1 -0.032484375 0.000116666666667 -0.000590625 0.399866
257 1 -0.032484375 0.000116666666667 0.000590625 0.485468
258 1 -0.032484375 0.000116666666667 0.001771875 0.40089
259 1 -0.032484375 0.000116666666667 0.002953125 0.488377
260 1 -0.032484375 0.000116666666667 0.004134375 0.39217
261 1 -0.032484375 0.000116666666667 0.005315625 0.483777
262 1 -0.032484375 0.000116666666667 0.006496875 0.375862
263 1 -0.032484375 0.000116666666667 0.007678125 0.45511
264 1 -0.032484375 0.000116666666667 0.008859375 0.335129
265 1 -0.032484375 0.000116666666667 0.010040625 0.402959
266 1 -0.032484375 0.000116666666667 0.011221875 0.281222
267 1 -0.032484375 0.000116666666667 0.012403125 0.323704
268 1 -0.032484375 0.000116666666667 0.013584375 0.215337
269 1 -0.032484375 0.000116666666667 0.014765625 0.23082
270 1 -0.032484375 0.000116666666667 0.015946875 0.155251
271 1 -0.032484375 0.000116666666667 0.017128125 0.14894
272 1 -0.032484375 0.000116666666667 0.018309375 0.108931
273 1 -0.031303125 -0.00261666666667 -0.019490625 0.274878
274 1 -0.031303125 -0.00261666666667 -0.018309375 0.249904
275 1 -0.031303125 -0.00261666666667 -0.017128125 0.369434
276 1 -0.031303125 -0.00261666666667 -0.015946875 0.36804
277 1 -0.031303125 -0.00261666666667 -0.014765625 0.454155
278 1 -0.031303125 -0.00261666666667 -0.013584375 0.471327
279 1 -0.031303125 -0.00261666666667 -0.012403125 0.51422
280 1 -0.031303125 -0.00261666666667 -0.011221875 0.541622
281 1 -0.031303125 -0.00261666666667 -0.010040625 0.545725
282 1 -0.031303125 -0.00261666666667 -0.008859375 0.577047
283 1 -0.031303125 -0.00261666666667 -0.007678125 0.557123
284 1 -0.031303125 -0.00261666666667 -0.006496875 0.593532
285 1 -0.031303125 -0.00261666666667 -0.005315625 0.561745
286 1 -0.031303125 -0.00261666666667 -0.004134375 0.600678
287 1 -0.031303125 -0.00261666666667 -0.002953125 0.561827
288 1 -0.031303125 -0.00261666666667 -0.001771875 0.606354
289 1 -0.031303125 -0.00261666666667 -0.000590625 0.565426
290 1 -0.031303125 -0.00261666666667 0.000590625 0.610829
291 1 -0.031303125 -0.00261666666667 0.001771875 0.56743
292 1 -0.031303125 -0.00261666666667 0.002953125 0.615503
293 1 -0.031303125 -0.00261666666667 0.004134375 0.566863
294 1 -0.031303125 -0.00261666666667 0.005315625 0.612771
295 1 -0.031303125 -0.00261666666667 0.006496875 0.557052
296 1 -0.031303125 -0.00261666666667 0.007678125 0.595687
297 1 -0.031303125 -0.00261666666667 0.008859375 0.527493
298 1 -0.031303125 -0.00261666666667 0.010040625 0.551739
299 1 -0.031303125 -0.00261666666667 0.011221875 0.476728
300 1 -0.031303125 -0.00261666666667 0.012403125 0.477946
301 1 -0.031303125 -0.00261666666667 0.013584375 0.404184
302 1 -0.031303125 -0.00261666666667 0.014765625 0.370794
303 1 -0.031303125 -0.00261666666667 0.015946875 0.3109
304 1 -0.031303125 -0.00261666666667 0.017128125 0.257207
305 1 -0.031303125 -0.00261666666667 0.018309375 0.226002
306 1 -0.031303125 -0.00261666666667 0.019490625 0.167871
307 1 -0.031303125 -0.00125 -0.019490625 0.274878
308 1 -0.031303125 -0.00125 -0.018309375 0.249904
309 1 -0.031303125 -0.00125 -0.017128125 0.369434
310 1 -0.031303125 -0.00125 -0.015946875 0.36804
311 1 -0.031303125 -0.00125 -0.014765625 0.454155
312 1 -0.031303125 -0.00125 -0.013584375 0.471327
313 1 -0.031303125 -0.00125 -0.012403125 0.51422
314 1 -0.031303125 -0.00125 -0.011221875 0.541622
315 1 -0.031303125 -0.00125 -0.010040625 0.545725
316 1 -0.031303125 -0.00125 -0.008859375 0.577047
317 1 -0.031303125 -0.00125 -0.007678125 0.557123
318 1 -0.031303125 -0.00125 -0.006496875 0.593532
319 1 -0.031303125 -0.00125 -0.005315625 0.561745
320 1 -0.031303125 -0.00125 -0.004134375 0.600678
321 1 -0.031303125 -0.00125 -0.002953125 0.561827
322 1 -0.031303125 -0.00125 -0.001771875 0.606354
323 1 -0.031303125 -0.00125 -0.000590625 0.565426
324 1 -0.031303125 -0.00125 0.000590625 0.610829
325 1 -0.031303125 -0.00125 0.001771875 0.56743
326 1 -0.031303125 -0.00125 0.002953125 0.615503
327 1 -0.031303125 -0.00125 0.004134375 0.566863
328 1 -0.031303125 -0.00125 0.005315625 0.612771
329 1 -0.031303125 -0.00125 0.006496875 0.557052
330 1 -0.031303125 -0.00125 0.007678125 0.595687
331 1 -0.031303125 -0.00125 0.008859375 0.527493
332 1 -0.031303125 -0.00125 0.010040625 0.551739
333 1 -0.031303125 -0.00125 0.011221875 0.476728
334 1 -0.031303125 -0.00125 0.012403125 0.477946
335 1 -0.031303125 -0.00125 0.013584375 0.404184
336 1 -0.031303125 -0.00125 0.014765625 0.370794
337 1 -0.031303125 -0.00125 0.015946875 0.3109
338 1 -0.031303125 -0.00125 0.017128125 0.257207
339 1 -0.031303125 -0.00125 0.018309375 0.226002
340 1 -0.031303125 -0.00125 0.019490625 0.167871
341 1 -0.031303125 0.000116666666667 -0.019490625 0.274878
342 1 -0.031303125 0.000116666666667 -0.018309375 0.249904
343 1 -0.031303125 0.000116666666667 -0.017128125 0.369434
344 1 -0.031303125 0.000116666666667 -0.015946875 0.36804
345 1 -0.031303125 0.000116666666667 -0.014765625 0.454155
346 1 -0.031303125 0.000116666666667 -0.013584375 0.471327
347 1 -0.031303125 0.000116666666667 -0.012403125 0.51422
348 1 -0.031303125 0.000116666666667 -0.011221875 0.541622
349 1 -0.031303125 0.000116666666667 -0.010040625 0.545725
350 1 -0.031303125 0.000116666666667 -0.008859375 0.577047
351 1 -0.031303125 0.000116666666667 -0.007678125 0.557123
352 1 -0.031303125 0.000116666666667 -0.006496875 0.593532
353 1 -0.031303125 0.000116666666667 -0.005315625 0.561745
354 1 -0.031303125 0.000116666666667 -0.004134375 0.600678
355 1 -0.031303125 0.000116666666667 -0.002953125 0.561827
356 1 -0.031303125 0.000116666666667 -0.001771875 0.606354
357 1 -0.031303125 0.000116666666667 -0.000590625 0.565426
358 1 -0.031303125 0.000116666666667 0.000590625 0.610829
359 1 -0.031303125 0.000116666666667 0.001771875 0.56743
360 1 -0.031303125 0.000116666666667 0.002953125 0.615503
361 1 -0.031303125 0.000116666666667 0.004134375 0.566863
362 1 -0.031303125 0.000116666666667 0.005315625 0.612771
363 1 -0.031303125 0.000116666666667 0.006496875 0.557052
364 1 -0.031303125 0.000116666666667 0.007678125 0.595687
365 1 -0.031303125 0.000116666666667 0.008859375 0.527493
366 1 -0.031303125 0.000116666666667 0.010040625 0.551739
367 1 -0.031303125 0.000116666666667 0.011221875 0.476728
368 1 -0.031303125 0.000116666666667 0.012403125 0.477946
369 1 -0.031303125 0.000116666666667 0.013584375 0.404184
370 1 -0.031303125 0.000116666666667 0.014765625 0.370794
371 1 -0.031303125 0.000116666666667 0.015946875 0.3109
372 1 -0.031303125 0.000116666666667 0.017128125 0.257207
373 1 -0.031303125 0.000116666666667 0.018309375 0.226002
374 1 -0.031303125 0.000116666666667 0.019490625 0.167871
375 1 -0.030121875 -0.00261666666667 -0.020671875 0.210268
376 1 -0.030121875 -0.00261666666667 -0.019490625 0.288957
377 1 -0.030121875 -0.00261666666667 -0.018309375 0.332483
378 1 -0.030121875 -0.00261666666667 -0.017128125 0.399518
379 1 -0.030121875 -0.00261666666667 -0.015946875 0.455561
380 1 -0.030121875 -0.00261666666667 -0.014765625 0.483582
381 1 -0.030121875 -0.00261666666667 -0.013584375 0.550128
382 1 -0.030121875 -0.00261666666667 -0.012403125 0.531533
383 1 -0.030121875 -0.00261666666667 -0.011221875 0.604871
384 1 -0.030121875 -0.00261666666667 -0.010040625 0.547443
385 1 -0.030121875 -0.00261666666667 -0.008859375 0.621546
386 1 -0.030121875 -0.00261666666667 -0.007678125 0.552161
387 1 -0.030121875 -0.00261666666667 -0.006496875 0.620752
388 1 -0.030121875 -0.00261666666667 -0.005315625 0.549672
389 1 -0.030121875 -0.00261666666667 -0.004134375 0.613883
390 1 -0.030121875 -0.00261666666667 -0.002953125 0.545781
391 1 -0.030121875 -0.00261666666667 -0.001771875 0.609538
392 1 -0.030121875 -0.00261666666667 -0.000590625 0.547098
393 1 -0.030121875 -0.00261666666667 0.000590625 0.611072
394 1 -0.030121875 -0.00261666666667 0.001771875 0.550643
395 1 -0.030121875 -0.00261666666667 0.002953125 0.618933
396 1 -0.030121875 -0.00261666666667 0.004134375 0.548955
397 1 -0.030121875 -0.00261666666667 0.005315625 0.632327
398 1 -0.030121875 -0.00261666666667 0.006496875 0.543719
399 1 -0.030121875 -0.00261666666667 0.007678125 0.632722
400 1 -0.030121875 -0.00261666666667 0.008859375 0.518453
401 1 -0.030121875 -0.00261666666667 0.010040625 0.618127
402 1 -0.030121875 -0.00261666666667 0.011221875 0.478311
403 1 -0.030121875 -0.00261666666667 0.012403125 0.568713
404 1 -0.030121875 -0.00261666666667 0.013584375 0.409133
405 1 -0.030121875 -0.00261666666667 0.014765625 0.464022
406 1 -0.030121875 -0.00261666666667 0.015946875 0.308558
407 1 -0.030121875 -0.00261666666667 0.017128125 0.337601
408 1 -0.030121875 -0.00261666666667 0.018309375 0.218398
409 1 -0.030121875 -0.00261666666667 0.019490625 0.223905
410 1 -0.030121875 -0.00261666666667 0.020671875 0.156639
411 1 -0.030121875 -0.00125 -0.020671875 0.210268
412 1 -0.030121875 -0.00125 -0.019490625 0.288957
413 1 -0.030121875 -0.00125 -0.018309375 0.332483
414 1 -0.030121875 -0.00125 -0.017128125 0.399518
415 1 -0.030121875 -0.00125 -0.015946875 0.455561
416 1 -0.030121875 -0.00125 -0.014765625 0.483582
417 1 -0.030121875 -0.00125 -0.013584375 0.550128
418 1 -0.030121875 -0.00125 -0.012403125 0.531533
419 1 -0.030121875 -0.00125 -0.011221875 0.604871
420 1 -0.030121875 -0.00125 -0.010040625 0.547443
421 1 -0.030121875 -0.00125 -0.008859375 0.621546
422 1 -0.030121875 -0.00125 -0.007678125 0.552161
423 1 -0.030121875 -0.00125 -0.006496875 0.620752
424 1 -0.030121875 -0.00125 -0.005315625 0.549672
425 1 -0.030121875 -0.00125 -0.004134375 0.613883
426 1 -0.030121875 -0.00125 -0.002953125 0.545781
427 1 -0.030121875 -0.00125 -0.001771875 0.609538
428 1 -0.030121875 -0.00125 -0.000590625 0.547098
429 1 -0.030121875 -0.00125 0.000590625 0.611072
430 1 -0.030121875 -0.00125 0.001771875 0.550643
431 1 -0.030121875 -0.00125 0.002953125 0.618933
432 1 -0.030121875 -0.00125 0.004134375 0.548955
433 1 -0.030121875 -0.00125 0.005315625 0.632327
434 1 -0.030121875 -0.00125 0.006496875 0.543719
435 1 -0.030121875 -0.00125 0.007678125 0.632722
436 1 -0.030121875 -0.00125 0.008859375 0.518453
437 1 -0.030121875 -0.00125 0.010040625 0.618127
438 1 -0.030121875 -0.00125 0.011221875 0.478311
439 1 -0.030121875 -0.00125 0.012403125 0.568713
440 1 -0.030121875 -0.00125 0.013584375 0.409133
441 1 -0.030121875 -0.00125 0.014765625 0.464022
442 1 -0.030121875 -0.00125 0.015946875 0.308558
443 1 -0.030121875 -0.00125 0.017128125 0.337601
444 1 -0.030121875 -0.00125 0.018309375 0.218398
445 1 -0.030121875 -0.00125 0.019490625 0.223905
446 1 -0.030121875 -0.00125 0.020671875 0.156639
447 1 -0.030121875 0.000116666666667 -0.020671875 0.210268
448 1 -0.030121875 0.000116666666667 -0.019490625 0.288957
449 1 -0.030121875 0.000116666666667 -0.018309375 0.332483
450 1 -0.030121875 0.000116666666667 -0.017128125 0.399518
451 1 -0.030121875 0.000116666666667 -0.015946875 0.455561
452 1 -0.030121875 0.000116666666667 -0.014765625 0.483582
453 1 -0.030121875 0.000116666666667 -0.013584375 0.550128
454 1 -0.030121875 0.000116666666667 -0.012403125 0.531533
455 1 -0.030121875 0.000116666666667 -0.011221875 0.604871
456 1 -0.030121875 0.000116666666667 -0.010040625 0.547443
457 1 -0.030121875 0.000116666666667 -0.008859375 0.621546
458 1 -0.030121875 0.000116666666667 -0.007678125 0.552161
459 1 -0.030121875 0.000116666666667 -0.006496875 0.620752
460 1 -0.030121875 0.000116666666667 -0.005315625 0.549672
461 1 -0.030121875 0.000116666666667 -0.004134375 0.613883
462 1 -0.030121875 0.000116666666667 -0.002953125 0.545781
463 1 -0.030121875 0.000116666666667 -0.001771875 0.609538
464 1 -0.030121875 0.000116666666667 -0.000590625 0.547098
465 1 -0.030121875 0.000116666666667 0.000590625 0.611072
466 1 -0.030121875 0.000116666666667 0.001771875 0.550643
467 1 -0.030121875 0.000116666666667 0.002953125 0.618933
468 1 -0.030121875 0.000116666666667 0.004134375 0.548955
469 1 -0.030121875 0.000116666666667 0.005315625 0.632327
470 1 -0.030121875 0.000116666666667 0.006496875 0.543719
471 1 -0.030121875 0.000116666666667 0.007678125 0.632722
472 1 -0.030121875 0.000116666666667 0.008859375 0.518453
473 1 -0.030121875 0.000116666666667 0.010040625 0.618127
474 1 -0.030121875 0.000116666666667 0.011221875 0.478311
475 1 -0.030121875 0.000116666666667 0.012403125 0.568713
476 1 -0.030121875 0.000116666666667 0.013584375 0.409133
477 1 -0.030121875 0.000116666666667 0.014765625 0.464022
478 1 -0.030121875 0.000116666666667 0.015946875 0.308558
479 1 -0.030121875 0.000116666666667 0.017128125 0.337601
480 1 -0.030121875 0.000116666666667 0.018309375 0.218398
481 1 -0.030121875 0.000116666666667 0.019490625 0.223905
482 1 -0.030121875 0.000116666666667 0.020671875 0.156639
483 1 -0.028940625 -0.00261666666667 -0.021853125 0.291511
484 1 -0.028940625 -0.00261666666667 -0.020671875 0.275361
485 1 -0.028940625 -0.00261666666667 -0.019490625 0.405109
486 1 -0.028940625 -0.00261666666667 -0.018309375 0.418672
487 1 -0.028940625 -0.00261666666667 -0.017128125 0.503041
488 1 -0.028940625 -0.00261666666667 -0.015946875 0.54433
489 1 -0.028940625 -0.00261666666667 -0.014765625 0.573203
490 1 -0.028940625 -0.00261666666667 -0.013584375 0.618654
491 1 -0.028940625 -0.00261666666667 -0.012403125 0.60093
492 1 -0.028940625 -0.00261666666667 -0.011221875 0.638924
493 1 -0.028940625 -0.00261666666667 -0.010040625 0.607557
494 1 -0.028940625 -0.00261666666667 -0.008859375 0.636185
495 1 -0.028940625 -0.00261666666667 -0.007678125 0.602252
496 1 -0.028940625 -0.00261666666667 -0.006496875 0.628586
497 1 -0.028940625 -0.00261666666667 -0.005315625 0.596202
498 1 -0.028940625 -0.00261666666667 -0.004134375 0.618956
499 1 -0.028940625 -0.00261666666667 -0.002953125 0.589771
500 1 -0.028940625 -0.00261666666667 -0.001771875 0.615081
501 1 -0.028940625 -0.00261666666667 -0.000590625 0.591101
502 1 -0.028940625 -0.00261666666667 0.000590625 0.616745
503 1 -0.028940625 -0.00261666666667 0.001771875 0.594283
504 1 -0.028940625 -0.00261666666667 0.002953125 0.624858
505 1 -0.028940625 -0.00261666666667 0.004134375 0.598682
506 1 -0.028940625 -0.00261666666667 0.005315625 0.633511
507 1 -0.028940625 -0.00261666666667 0.006496875 0.598236
508 1 -0.028940625 -0.00261666666667 0.007678125 0.639716
509 1 -0.028940625 -0.00261666666667 0.008859375 0.588856
510 1 -0.028940625 -0.00261666666667 0.010040625 0.639151
511 1 -0.028940625 -0.00261666666667 0.011221875 0.566914
512 1 -0.028940625 -0.00261666666667 0.012403125 0.614045
513 1 -0.028940625 -0.00261666666667 0.013584375 0.522046
514 1 -0.028940625 -0.00261666666667 0.014765625 0.544745
515 1 -0.028940625 -0.00261666666667 0.015946875 0.438052
516 1 -0.028940625 -0.00261666666667 0.017128125 0.43045
517 1 -0.028940625 -0.00261666666667 0.018309375 0.345838
518 1 -0.028940625 -0.00261666666667 0.019490625 0.314361
519 1 -0.028940625 -0.00261666666667 0.020671875 0.264142
520 1 -0.028940625 -0.00261666666667 0.021853125 0.223669
521 1 -0.028940625 -0.00125 -0.021853125 0.291511
522 1 -0.028940625 -0.00125 -0.020671875 0.275361
523 1 -0.028940625 -0.00125 -0.019490625 0.405109
524 1 -0.028940625 -0.00125 -0.018309375 0.418672
525 1 -0.028940625 -0.00125 -0.017128125 0.503041
526 1 -0.028940625 -0.00125 -0.015946875 0.54433
527 1 -0.028940625 -0.00125 -0.014765625 0.573203
528 1 -0.028940625 -0.00125 -0.013584375 0.618654
529 1 -0.028940625 -0.00125 -0.012403125 0.60093
530 1 -0.028940625 -0.00125 -0.011221875 0.638924
531 1 -0.028940625 -0.00125 -0.010040625 0.607557
532 1 -0.028940625 -0.00125 -0.008859375 0.636185
533 1 -0.028940625 -0.00125 -0.007678125 0.602252
534 1 -0.028940625 -0.00125 -0.006496875 0.628586
535 1 -0.028940625 -0.00125 -0.005315625 0.596202
536 1 -0.028940625 -0.00125 -0.004134375 0.618956
537 1 -0.028940625 -0.00125 -0.002953125 0.589771
538 1 -0.028940625 -0.00125 -0.001771875 0.615081