ITEM: TIMESTEP
0
ITEM: NUMBER OF ATOMS
9240
ITEM: BOX BOUNDS ss ss ss
-3.7007399999999996e-02 3.7007399999999996e-02
-2.0002499999999999e-03 2.5000000000000004e-07
-3.7007399999999996e-02 3.7007399999999996e-02
ITEM: ATOMS id type x y z c_1
0 1 -0.037209375 -0.00261666666667 -0.000590625 0.292174
1 1 -0.037209375 -0.00125 -0.000590625 0.292174
2 1 -0.037209375 0.000116666666667 -0.000590625 0.292174
3 1 -0.036028125 -0.00261666666667 -0.007678125 0.307488
4 1 -0.036028125 -0.00261666666667 -0.006496875 0.187964
5 1 -0.036028125 -0.00261666666667 -0.005315625 0.311846
6 1 -0.036028125 -0.00261666666667 -0.004134375 0.191932
7 1 -0.036028125 -0.00261666666667 -0.002953125 0.312176
8 1 -0.036028125 -0.00261666666667 -0.001771875 0.193737
9 1 -0.036028125 -0.00261666666667 -0.000590625 0.311095
10 1 -0.036028125 -0.00261666666667 0.000590625 0.191633
11 1 -0.036028125 -0.00261666666667 0.001771875 0.304915
12 1 -0.036028125 -0.00261666666667 0.002953125 0.184535
13 1 -0.036028125 -0.00261666666667 0.004134375 0.29204
14 1 -0.036028125 -0.00261666666667 0.005315625 0.169382
15 1 -0.036028125 -0.00261666666667 0.006496875 0.269973
16 1 -0.036028125 -0.00261666666667 0.007678125 0.150171
17 1 -0.036028125 -0.00125 -0.007678125 0.307488
18 1 -0.036028125 -0.00125 -0.006496875 0.187964
19 1 -0.036028125 -0.00125 -0.005315625 0.311846
20 1 -0.036028125 -0.00125 -0.004134375 0.191932
21 1 -0.036028125 -0.00125 -0.002953125 0.312176
22 1 -0.036028125 -0.00125 -0.001771875 0.193737
23 1 -0.036028125 -0.00125 -0.000590625 0.311095
24 1 -0.036028125 -0.00125 0.000590625 0.191633
25 1 -0.036028125 -0.00125 0.001771875 0.304915
26 1 -0.036028125 -0.00125 0.002953125 0.184535
27 1 -0.036028125 -0.00125 0.004134375 0.29204
28 1 -0.036028125 -0.00125 0.005315625 0.169382
29 1 -0.036028125 -0.00125 0.006496875 0.269973
30 1 -0.036028125 -0.00125 0.007678125 0.150171
31 1 -0.036028125 0.000116666666667 -0.007678125 0.307488
32 1 -0.036028125 0.000116666666667 -0.006496875 0.187964
33 1 -0.036028125 0.000116666666667 -0.005315625 0.311846
34 1 -0.036028125 0.000116666666667 -0.004134375 0.191932
35 1 -0.036028125 0.000116666666667 -0.002953125 0.312176
36 1 -0.036028125 0.000116666666667 -0.001771875 0.193737
37 1 -0.036028125 0.000116666666667 -0.000590625 0.311095
38 1 -0.036028125 0.000116666666667 0.000590625 0.191633
39 1 -0.036028125 0.000116666666667 0.001771875 0.304915
40 1 -0.036028125 0.000116666666667 0.002953125 0.184535
41 1 -0.036028125 0.000116666666667 0.004134375 0.29204
42 1 -0.036028125 0.000116666666667 0.005315625 0.169382
43 1 -0.036028125 0.000116666666667 0.006496875 0.269973
44 1 -0.036028125 0.000116666666667 0.007678125 0.150171
45 1 -0.034846875 -0.00261666666667 -0.011221875 0.184319
46 1 -0.034846875 -0.00261666666667 -0.010040625 0.215888
47 1 -0.034846875 -0.00261666666667 -0.008859375 0.203686
48 1 -0.034846875 -0.00261666666667 -0.007678125 0.225072
49 1 -0.034846875 -0.00261666666667 -0.006496875 0.214579
50 1 -0.034846875 -0.00261666666667 -0.005315625 0.227983
51 1 -0.034846875 -0.00261666666667 -0.004134375 0.221555
52 1 -0.034846875 -0.00261666666667 -0.002953125 0.229068
53 1 -0.034846875 -0.00261666666667 -0.001771875 0.224635
54 1 -0.034846875 -0.00261666666667 -0.000590625 0.227203
55 1 -0.034846875 -0.00261666666667 0.000590625 0.222863
56 1 -0.034846875 -0.00261666666667 0.001771875 0.221683
57 1 -0.034846875 -0.00261666666667 0.002953125 0.213901
58 1 -0.034846875 -0.00261666666667 0.004134375 0.206476
59 1 -0.034846875 -0.00261666666667 0.005315625 0.196556
60 1 -0.034846875 -0.00261666666667 0.006496875 0.184471
61 1 -0.034846875 -0.00261666666667 0.007678125 0.169809
62 1 -0.034846875 -0.00261666666667 0.008859375 0.158194
63 1 -0.034846875 -0.00261666666667 0.010040625 0.140121
64 1 -0.034846875 -0.00261666666667 0.011221875 0.132449
65 1 -0.034846875 -0.00125 -0.011221875 0.184319
66 1 -0.034846875 -0.00125 -0.010040625 0.215888
67 1 -0.034846875 -0.00125 -0.008859375 0.203686
68 1 -0.034846875 -0.00125 -0.007678125 0.225072
69 1 -0.034846875 -0.00125 -0.006496875 0.214579
70 1 -0.034846875 -0.00125 -0.005315625 0.227983
71 1 -0.034846875 -0.00125 -0.004134375 0.221555
72 1 -0.034846875 -0.00125 -0.002953125 0.229068
73 1 -0.034846875 -0.00125 -0.001771875 0.224635
74 1 -0.034846875 -0.00125 -0.000590625 0.227203
75 1 -0.034846875 -0.00125 0.000590625 0.222863
76 1 -0.034846875 -0.00125 0.001771875 0.221683
77 1 -0.034846875 -0.00125 0.002953125 0.213901
78 1 -0.034846875 -0.00125 0.004134375 0.206476
79 1 -0.034846875 -0.00125 0.005315625 0.196556
80 1 -0.034846875 -0.00125 0.006496875 0.184471
81 1 -0.034846875 -0.00125 0.007678125 0.169809
82 1 -0.034846875 -0.00125 0.008859375 0.158194
83 1 -0.034846875 -0.00125 0.010040625 0.140121
84 1 -0.034846875 -0.00125 0.011221875 0.132449
85 1 -0.034846875 0.000116666666667 -0.011221875 0.184319
86 1 -0.034846875 0.000116666666667 -0.010040625 0.215888
87 1 -0.034846875 0.000116666666667 -0.008859375 0.203686
88 1 -0.034846875 0.000116666666667 -0.007678125 0.225072
89 1 -0.034846875 0.000116666666667 -0.006496875 0.214579
90 1 -0.034846875 0.000116666666667 -0.005315625 0.227983
91 1 -0.034846875 0.000116666666667 -0.004134375 0.221555
92 1 -0.034846875 0.000116666666667 -0.002953125 0.229068
93 1 -0.034846875 0.000116666666667 -0.001771875 0.224635
94 1 -0.034846875 0.000116666666667 -0.000590625 0.227203
95 1 -0.034846875 0.000116666666667 0.000590625 0.222863
96 1 -0.034846875 0.000116666666667 0.001771875 0.221683
97 1 -0.034846875 0.000116666666667 0.002953125 0.213901
98 1 -0.034846875 0.000116666666667 0.004134375 0.206476
99 1 -0.034846875 0.000116666666667 0.005315625 0.196556
100 1 -0.034846875 0.000116666666667 0.006496875 0.184471
101 1 -0.034846875 0.000116666666667 0.007678125 0.169809
102 1 -0.034846875 0.000116666666667 0.008859375 0.158194
103 1 -0.034846875 0.000116666666667 0.010040625 0.140121
104 1 -0.034846875 0.000116666666667 0.011221875 0.132449
105 1 -0.033665625 -0.00261666666667 -0.013584375 0.245356
106 1 -0.033665625 -0.00261666666667 -0.012403125 0.376809
107 1 -0.033665625 -0.00261666666667 -0.011221875 0.29262
108 1 -0.033665625 -0.00261666666667 -0.010040625 0.407532
109 1 -0.033665625 -0.00261666666667 -0.008859375 0.322515
110 1 -0.033665625 -0.00261666666667 -0.007678125 0.422722
111 1 -0.033665625 -0.00261666666667 -0.006496875 0.340602
112 1 -0.033665625 -0.00261666666667 -0.005315625 0.430919
113 1 -0.033665625 -0.00261666666667 -0.004134375 0.350247
114 1 -0.033665625 -0.00261666666667 -0.002953125 0.433528
115 1 -0.033665625 -0.00261666666667 -0.001771875 0.356233
116 1 -0.033665625 -0.00261666666667 -0.000590625 0.434553
117 1 -0.033665625 -0.00261666666667 0.000590625 0.35503
118 1 -0.033665625 -0.00261666666667 0.001771875 0.427322
119 1 -0.033665625 -0.00261666666667 0.002953125 0.344033
120 1 -0.033665625 -0.00261666666667 0.004134375 0.409515
121 1 -0.033665625 -0.00261666666667 0.005315625 0.315192
122 1 -0.033665625 -0.00261666666667 0.006496875 0.377316
123 1 -0.033665625 -0.00261666666667 0.007678125 0.272685
124 1 -0.033665625 -0.00261666666667 0.008859375 0.333844
125 1 -0.033665625 -0.00261666666667 0.010040625 0.220227
126 1 -0.033665625 -0.00261666666667 0.011221875 0.281849
127 1 -0.033665625 -0.00261666666667 0.012403125 0.167225
128 1 -0.033665625 -0.00261666666667 0.013584375 0.23034
129 1 -0.033665625 -0.00125 -0.013584375 0.245356
130 1 -0.033665625 -0.00125 -0.012403125 0.376809
131 1 -0.033665625 -0.00125 -0.011221875 0.29262
132 1 -0.033665625 -0.00125 -0.010040625 0.407532
133 1 -0.033665625 -0.00125 -0.008859375 0.322515
134 1 -0.033665625 -0.00125 -0.007678125 0.422722
135 1 -0.033665625 -0.00125 -0.006496875 0.340602
136 1 -0.033665625 -0.00125 -0.005315625 0.430919
137 1 -0.033665625 -0.00125 -0.004134375 0.350247
138 1 -0.033665625 -0.00125 -0.002953125 0.433528
139 1 -0.033665625 -0.00125 -0.001771875 0.356233
140 1 -0.033665625 -0.00125 -0.000590625 0.434553
141 1 -0.033665625 -0.00125 0.000590625 0.35503
142 1 -0.033665625 -0.00125 0.001771875 0.427322
143 1 -0.033665625 -0.00125 0.002953125 0.344033
144 1 -0.033665625 -0.00125 0.004134375 0.409515
145 1 -0.033665625 -0.00125 0.005315625 0.315192
146 1 -0.033665625 -0.00125 0.006496875 0.377316
147 1 -0.033665625 -0.00125 0.007678125 0.272685
148 1 -0.033665625 -0.00125 0.008859375 0.333844
149 1 -0.033665625 -0.00125 0.010040625 0.220227
150 1 -0.033665625 -0.00125 0.011221875 0.281849
151 1 -0.033665625 -0.00125 0.012403125 0.167225
152 1 -0.033665625 -0.00125 0.013584375 0.23034
153 1 -0.033665625 0.000116666666667 -0.013584375 0.245356
154 1 -0.033665625 0.000116666666667 -0.012403125 0.376809
155 1 -0.033665625 0.000116666666667 -0.011221875 0.29262
156 1 -0.033665625 0.000116666666667 -0.010040625 0.407532
157 1 -0.033665625 0.000116666666667 -0.008859375 0.322515
158 1 -0.033665625 0.000116666666667 -0.007678125 0.422722
159 1 -0.033665625 0.000116666666667 -0.006496875 0.340602
160 1 -0.033665625 0.000116666666667 -0.005315625 0.430919
161 1 -0.033665625 0.000116666666667 -0.004134375 0.350247
162 1 -0.033665625 0.000116666666667 -0.002953125 0.433528
163 1 -0.033665625 0.000116666666667 -0.001771875 0.356233
164 1 -0.033665625 0.000116666666667 -0.000590625 0.434553
165 1 -0.033665625 0.000116666666667 0.000590625 0.35503
166 1 -0.033665625 0.000116666666667 0.001771875 0.427322
167 1 -0.033665625 0.000116666666667 0.002953125 0.344033
168 1 -0.033665625 0.000116666666667 0.004134375 0.409515
169 1 -0.033665625 0.000116666666667 0.005315625 0.315192
170 1 -0.033665625 0.000116666666667 0.006496875 0.377316
171 1 -0.033665625 0.000116666666667 0.007678125 0.272685
172 1 -0.033665625 0.000116666666667 0.008859375 0.333844
173 1 -0.033665625 0.000116666666667 0.010040625 0.220227
174 1 -0.033665625 0.000116666666667 0.011221875 0.281849
175 1 -0.033665625 0.000116666666667 0.012403125 0.167225
176 1 -0.033665625 0.000116666666667 0.013584375 0.23034
177 1 -0.032484375 -0.00261666666667 -0.018309375 0.172827
178 1 -0.032484375 -0.00261666666667 -0.017128125 0.234493
179 1 -0.032484375 -0.00261666666667 -0.015946875 0.255467
180 1 -0.032484375 -0.00261666666667 -0.014765625 0.29938
181 1 -0.032484375 -0.00261666666667 -0.013584375 0.334937
182 1 -0.032484375 -0.00261666666667 -0.012403125 0.351704
183 1 -0.032484375 -0.00261666666667 -0.011221875 0.390934
184 1 -0.032484375 -0.00261666666667 -0.010040625 0.376491
185 1 -0.032484375 -0.00261666666667 -0.008859375 0.424009
186 1 -0.032484375 -0.00261666666667 -0.007678125 0.388846
187 1 -0.032484375 -0.00261666666667 -0.006496875 0.43792
188 1 -0.032484375 -0.00261666666667 -0.005315625 0.392458
189 1 -0.032484375 -0.00261666666667 -0.004134375 0.447305
190 1 -0.032484375 -0.00261666666667 -0.002953125 0.39365
191 1 -0.032484375 -0.00261666666667 -0.001771875 0.453364
192 1 -0.032484375 -0.00261666666667 -0.000590625 0.392191
193 1 -0.032484375 -0.00261666666667 0.000590625 0.455856
194 1 -0.032484375 -0.00261666666667 0.001771875 0.386569
195 1 -0.032484375 -0.00261666666667 0.002953125 0.45104
196 1 -0.032484375 -0.00261666666667 0.004134375 0.367171
197 1 -0.032484375 -0.00261666666667 0.005315625 0.433936
198 1 -0.032484375 -0.00261666666667 0.006496875 0.336753
199 1 -0.032484375 -0.00261666666667 0.007678125 0.389118
200 1 -0.032484375 -0.00261666666667 0.008859375 0.28773
201 1 -0.032484375 -0.00261666666667 0.010040625 0.322718
202 1 -0.032484375 -0.00261666666667 0.011221875 0.231261
203 1 -0.032484375 -0.00261666666667 0.012403125 0.247752
204 1 -0.032484375 -0.00261666666667 0.013584375 0.17472
205 1 -0.032484375 -0.00261666666667 0.014765625 0.174248
206 1 -0.032484375 -0.00261666666667 0.015946875 0.127853
207 1 -0.032484375 -0.00261666666667 0.017128125 0.119715
208 1 -0.032484375 -0.00261666666667 0.018309375 0.0949155
209 1 -0.032484375 -0.00125 -0.018309375 0.172827
210 1 -0.032484375 -0.00125 -0.017128125 0.234493
211 1 -0.032484375 -0.00125 -0.015946875 0.255467
212 1 -0.032484375 -0.00125 -0.014765625 0.29938
213 1 -0.032484375 -0.00125 -0.013584375 0.334937
214 1 -0.032484375 -0.00125 -0.012403125 0.351704
215 1 -0.032484375 -0.00125 -0.011221875 0.390934
216 1 -0.032484375 -0.00125 -0.010040625 0.376491
217 1 -0.032484375 -0.00125 -0.008859375 0.424009
218 1 -0.032484375 -0.00125 -0.007678125 0.388846
219 1 -0.032484375 -0.00125 -0.006496875 0.43792
220 1 -0.032484375 -0.00125 -0.005315625 0.392458
221 1 -0.032484375 -0.00125 -0.004134375 0.447305
222 1 -0.032484375 -0.00125 -0.002953125 0.39365
223 1 -0.032484375 -0.00125 -0.001771875 0.453364
224 1 -0.032484375 -0.00125 -0.000590625 0.392191
225 1 -0.032484375 -0.00125 0.000590625 0.455856
226 1 -0.032484375 -0.00125 0.001771875 0.386569
227 1 -0.032484375 -0.00125 0.002953125 0.45104
228 1 -0.032484375 -0.00125 0.004134375 0.367171
229 1 -0.032484375 -0.00125 0.005315625 0.433936
230 1 -0.032484375 -0.00125 0.006496875 0.336753
231 1 -0.032484375 -0.00125 0.007678125 0.389118
232 1 -0.032484375 -0.00125 0.008859375 0.28773
233 1 -0.032484375 -0.00125 0.010040625 0.322718
234 1 -0.032484375 -0.00125 0.011221875 0.231261
235 1 -0.032484375 -0.00125 0.012403125 0.247752
236 1 -0.032484375 -0.00125 0.013584375 0.17472
237 1 -0.032484375 -0.00125 0.014765625 0.174248
238 1 -0.032484375 -0.00125 0.015946875 0.127853
239 1 -0.032484375 -0.00125 0.017128125 0.119715
240 1 -0.032484375 -0.00125 0.018309375 0.0949155
241 1 -0.032484375 0.000116666666667 -0.018309375 0.172827
242 1 -0.032484375 0.000116666666667 -0.017128125 0.234493
243 1 -0.032484375 0.000116666666667 -0.015946875 0.255467
244 1 -0.032484375 0.000116666666667 -0.014765625 0.29938
245 1 -0.032484375 0.000116666666667 -0.013584375 0.334937
246 1 -0.032484375 0.000116666666667 -0.012403125 0.351704
247 1 -0.032484375 0.000116666666667 -0.011221875 0.390934
248 1 -0.032484375 0.000116666666667 -0.010040625 0.376491
249 1 -0.032484375 0.000116666666667 -0.008859375 0.424009
250 1 -0.032484375 0.000116666666667 -0.007678125 0.388846
251 1 -0.032484375 0.000116666666667 -0.006496875 0.43792
252 1 -0.032484375 0.000116666666667 -0.005315625 0.392458
253 1 -0.032484375 0.000116666666667 -0.004134375 0.447305
254 1 -0.032484375 0.000116666666667 -0.002953125 0.39365
255 1 -0.032484375 0.000116666666667 -0.001771875 0.453364
256 1 -0.032484375 0.000116666666667 -0.000590625 0.392191
257 1 -0.032484375 0.000116666666667 0.000590625 0.455856
258 1 -0.032484375 0.000116666666667 0.001771875 0.386569
259 1 -0.032484375 0.000116666666667 0.002953125 0.45104
260 1 -0.032484375 0.000116666666667 0.004134375 0.367171
261 1 -0.032484375 0.000116666666667 0.005315625 0.433936
262 1 -0.032484375 0.000116666666667 0.006496875 0.336753
263 1 -0.032484375 0.000116666666667 0.007678125 0.389118
264 1 -0.032484375 0.000116666666667 0.008859375 0.28773
265 1 -0.032484375 0.000116666666667 0.010040625 0.322718
266 1 -0.032484375 0.000116666666667 0.011221875 0.231261
267 1 -0.032484375 0.000116666666667 0.012403125 0.247752
268 1 -0.032484375 0.000116666666667 0.013584375 0.17472
269 1 -0.032484375 0.000116666666667 0.014765625 0.174248
270 1 -0.032484375 0.000116666666667 0.015946875 0.127853
271 1 -0.032484375 0.000116666666667 0.017128125 0.119715
272 1 -0.032484375 0.000116666666667 0.018309375 0.0949155
273 1 -0.031303125 -0.00261666666667 -0.019490625 0.333388
274 1 -0.031303125 -0.00261666666667 -0.018309375 0.317977
275 1 -0.031303125 -0.00261666666667 -0.017128125 0.4268
276 1 -0.031303125 -0.00261666666667 -0.015946875 0.433993
277 1 -0.031303125 -0.00261666666667 -0.014765625 0.49606
278 1 -0.031303125 -0.00261666666667 -0.013584375 0.516353
279 1 -0.031303125 -0.00261666666667 -0.012403125 0.542286
280 1 -0.031303125 -0.00261666666667 -0.011221875 0.563729
281 1 -0.031303125 -0.00261666666667 -0.010040625 0.563382
282 1 -0.031303125 -0.00261666666667 -0.008859375 0.580282
283 1 -0.031303125 -0.00261666666667 -0.007678125 0.571536
284 1 -0.031303125 -0.00261666666667 -0.006496875 0.588587
285 1 -0.031303125 -0.00261666666667 -0.005315625 0.576252
286 1 -0.031303125 -0.00261666666667 -0.004134375 0.591692
287 1 -0.031303125 -0.00261666666667 -0.002953125 0.577016
288 1 -0.031303125 -0.00261666666667 -0.001771875 0.596039
289 1 -0.031303125 -0.00261666666667 -0.000590625 0.579439
290 1 -0.031303125 -0.00261666666667 0.000590625 0.599514
291 1 -0.031303125 -0.00261666666667 0.001771875 0.577265
292 1 -0.031303125 -0.00261666666667 0.002953125 0.603056
293 1 -0.031303125 -0.00261666666667 0.004134375 0.570282
294 1 -0.031303125 -0.00261666666667 0.005315625 0.593033
295 1 -0.031303125 -0.00261666666667 0.006496875 0.550681
296 1 -0.031303125 -0.00261666666667 0.007678125 0.562751
297 1 -0.031303125 -0.00261666666667 0.008859375 0.514137
298 1 -0.031303125 -0.00261666666667 0.010040625 0.501795
299 1 -0.031303125 -0.00261666666667 0.011221875 0.456391
300 1 -0.031303125 -0.00261666666667 0.012403125 0.415018
301 1 -0.031303125 -0.00261666666667 0.013584375 0.386752
302 1 -0.031303125 -0.00261666666667 0.014765625 0.311749
303 1 -0.031303125 -0.00261666666667 0.015946875 0.306411
304 1 -0.031303125 -0.00261666666667 0.017128125 0.217555
305 1 -0.031303125 -0.00261666666667 0.018309375 0.238479
306 1 -0.031303125 -0.00261666666667 0.019490625 0.149757
307 1 -0.031303125 -0.00125 -0.019490625 0.333388
308 1 -0.031303125 -0.00125 -0.018309375 0.317977
309 1 -0.031303125 -0.00125 -0.017128125 0.4268
310 1 -0.031303125 -0.00125 -0.015946875 0.433993
311 1 -0.031303125 -0.00125 -0.014765625 0.49606
312 1 -0.031303125 -0.00125 -0.013584375 0.516353
313 1 -0.031303125 -0.00125 -0.012403125 0.542286
314 1 -0.031303125 -0.00125 -0.011221875 0.563729
315 1 -0.031303125 -0.00125 -0.010040625 0.563382
316 1 -0.031303125 -0.00125 -0.008859375 0.580282
317 1 -0.031303125 -0.00125 -0.007678125 0.571536
318 1 -0.031303125 -0.00125 -0.006496875 0.588587
319 1 -0.031303125 -0.00125 -0.005315625 0.576252
320 1 -0.031303125 -0.00125 -0.004134375 0.591692
321 1 -0.031303125 -0.00125 -0.002953125 0.577016
322 1 -0.031303125 -0.00125 -0.001771875 0.596039
323 1 -0.031303125 -0.00125 -0.000590625 0.579439
324 1 -0.031303125 -0.00125 0.000590625 0.599514
325 1 -0.031303125 -0.00125 0.001771875 0.577265
326 1 -0.031303125 -0.00125 0.002953125 0.603056
327 1 -0.031303125 -0.00125 0.004134375 0.570282
328 1 -0.031303125 -0.00125 0.005315625 0.593033
329 1 -0.031303125 -0.00125 0.006496875 0.550681
330 1 -0.031303125 -0.00125 0.007678125 0.562751
331 1 -0.031303125 -0.00125 0.008859375 0.514137
332 1 -0.031303125 -0.00125 0.010040625 0.501795
333 1 -0.031303125 -0.00125 0.011221875 0.456391
334 1 -0.031303125 -0.00125 0.012403125 0.415018
335 1 -0.031303125 -0.00125 0.013584375 0.386752
336 1 -0.031303125 -0.00125 0.014765625 0.311749
337 1 -0.031303125 -0.00125 0.015946875 0.306411
338 1 -0.031303125 -0.00125 0.017128125 0.217555
339 1 -0.031303125 -0.00125 0.018309375 0.238479
340 1 -0.031303125 -0.00125 0.019490625 0.149757
341 1 -0.031303125 0.000116666666667 -0.019490625 0.333388
342 1 -0.031303125 0.000116666666667 -0.018309375 0.317977
343 1 -0.031303125 0.000116666666667 -0.017128125 0.4268
344 1 -0.031303125 0.000116666666667 -0.015946875 0.433993
345 1 -0.031303125 0.000116666666667 -0.014765625 0.49606
346 1 -0.031303125 0.000116666666667 -0.013584375 0.516353
347 1 -0.031303125 0.000116666666667 -0.012403125 0.542286
348 1 -0.031303125 0.000116666666667 -0.011221875 0.563729
349 1 -0.031303125 0.000116666666667 -0.010040625 0.563382
350 1 -0.031303125 0.000116666666667 -0.008859375 0.580282
351 1 -0.031303125 0.000116666666667 -0.007678125 0.571536
352 1 -0.031303125 0.000116666666667 -0.006496875 0.588587
353 1 -0.031303125 0.000116666666667 -0.005315625 0.576252
354 1 -0.031303125 0.000116666666667 -0.004134375 0.591692
355 1 -0.031303125 0.000116666666667 -0.002953125 0.577016
356 1 -0.031303125 0.000116666666667 -0.001771875 0.596039
357 1 -0.031303125 0.000116666666667 -0.000590625 0.579439
358 1 -0.031303125 0.000116666666667 0.000590625 0.599514
359 1 -0.031303125 0.000116666666667 0.001771875 0.577265
360 1 -0.031303125 0.000116666666667 0.002953125 0.603056
361 1 -0.031303125 0.000116666666667 0.004134375 0.570282
362 1 -0.031303125 0.000116666666667 0.005315625 0.593033
363 1 -0.031303125 0.000116666666667 0.006496875 0.550681
364 1 -0.031303125 0.000116666666667 0.007678125 0.562751
365 1 -0.031303125 0.000116666666667 0.008859375 0.514137
366 1 -0.031303125 0.000116666666667 0.010040625 0.501795
367 1 -0.031303125 0.000116666666667 0.011221875 0.456391
368 1 -0.031303125 0.000116666666667 0.012403125 0.415018
369 1 -0.031303125 0.000116666666667 0.013584375 0.386752
370 1 -0.031303125 0.000116666666667 0.014765625 0.311749
371 1 -0.031303125 0.000116666666667 0.015946875 0.306411
372 1 -0.031303125 0.000116666666667 0.017128125 0.217555
373 1 -0.031303125 0.000116666666667 0.018309375 0.238479
374 1 -0.031303125 0.000116666666667 0.019490625 0.149757
375 1 -0.030121875 -0.00261666666667 -0.020671875 0.260205
376 1 -0.030121875 -0.00261666666667 -0.019490625 0.33663
377 1 -0.030121875 -0.00261666666667 -0.018309375 0.377405
378 1 -0.030121875 -0.00261666666667 -0.017128125 0.428418
379 1 -0.030121875 -0.00261666666667 -0.015946875 0.472337
380 1 -0.030121875 -0.00261666666667 -0.014765625 0.48496
381 1 -0.030121875 -0.00261666666667 -0.013584375 0.534943
382 1 -0.030121875 -0.00261666666667 -0.012403125 0.526322
383 1 -0.030121875 -0.00261666666667 -0.011221875 0.567513
384 1 -0.030121875 -0.00261666666667 -0.010040625 0.544218
385 1 -0.030121875 -0.00261666666667 -0.008859375 0.581427
386 1 -0.030121875 -0.00261666666667 -0.007678125 0.550058
387 1 -0.030121875 -0.00261666666667 -0.006496875 0.586524
388 1 -0.030121875 -0.00261666666667 -0.005315625 0.550999
389 1 -0.030121875 -0.00261666666667 -0.004134375 0.591329
390 1 -0.030121875 -0.00261666666667 -0.002953125 0.550394
391 1 -0.030121875 -0.00261666666667 -0.001771875 0.596744
392 1 -0.030121875 -0.00261666666667 -0.000590625 0.550436
393 1 -0.030121875 -0.00261666666667 0.000590625 0.603695
394 1 -0.030121875 -0.00261666666667 0.001771875 0.549642
395 1 -0.030121875 -0.00261666666667 0.002953125 0.610334
396 1 -0.030121875 -0.00261666666667 0.004134375 0.539685
397 1 -0.030121875 -0.00261666666667 0.005315625 0.613976
398 1 -0.030121875 -0.00261666666667 0.006496875 0.519716
399 1 -0.030121875 -0.00261666666667 0.007678125 0.598978
400 1 -0.030121875 -0.00261666666667 0.008859375 0.478938
401 1 -0.030121875 -0.00261666666667 0.010040625 0.561673
402 1 -0.030121875 -0.00261666666667 0.011221875 0.425274
403 1 -0.030121875 -0.00261666666667 0.012403125 0.502285
404 1 -0.030121875 -0.00261666666667 0.013584375 0.356413
405 1 -0.030121875 -0.00261666666667 0.014765625 0.40801
406 1 -0.030121875 -0.00261666666667 0.015946875 0.272998
407 1 -0.030121875 -0.00261666666667 0.017128125 0.293443
408 1 -0.030121875 -0.00261666666667 0.018309375 0.197842
409 1 -0.030121875 -0.00261666666667 0.019490625 0.200359
410 1 -0.030121875 -0.00261666666667 0.020671875 0.146909
411 1 -0.030121875 -0.00125 -0.020671875 0.260205
412 1 -0.030121875 -0.00125 -0.019490625 0.33663
413 1 -0.030121875 -0.00125 -0.018309375 0.377405
414 1 -0.030121875 -0.00125 -0.017128125 0.428418
415 1 -0.030121875 -0.00125 -0.015946875 0.472337
416 1 -0.030121875 -0.00125 -0.014765625 0.48496
417 1 -0.030121875 -0.00125 -0.013584375 0.534943
418 1 -0.030121875 -0.00125 -0.012403125 0.526322
419 1 -0.030121875 -0.00125 -0.011221875 0.567513
420 1 -0.030121875 -0.00125 -0.010040625 0.544218
421 1 -0.030121875 -0.00125 -0.008859375 0.581427
422 1 -0.030121875 -0.00125 -0.007678125 0.550058
423 1 -0.030121875 -0.00125 -0.006496875 0.586524
424 1 -0.030121875 -0.00125 -0.005315625 0.550999
425 1 -0.030121875 -0.00125 -0.004134375 0.591329
426 1 -0.030121875 -0.00125 -0.002953125 0.550394
427 1 -0.030121875 -0.00125 -0.001771875 0.596744
428 1 -0.030121875 -0.00125 -0.000590625 0.550436
429 1 -0.030121875 -0.00125 0.000590625 0.603695
430 1 -0.030121875 -0.00125 0.001771875 0.549642
431 1 -0.030121875 -0.00125 0.002953125 0.610334
432 1 -0.030121875 -0.00125 0.004134375 0.539685
433 1 -0.030121875 -0.00125 0.005315625 0.613976
434 1 -0.030121875 -0.00125 0.006496875 0.519716
435 1 -0.030121875 -0.00125 0.007678125 0.598978
436 1 -0.030121875 -0.00125 0.008859375 0.478938
437 1 -0.030121875 -0.00125 0.010040625 0.561673
438 1 -0.030121875 -0.00125 0.011221875 0.425274
439 1 -0.030121875 -0.00125 0.012403125 0.502285
440 1 -0.030121875 -0.00125 0.013584375 0.356413
441 1 -0.030121875 -0.00125 0.014765625 0.40801
442 1 -0.030121875 -0.00125 0.015946875 0.272998
443 1 -0.030121875 -0.00125 0.017128125 0.293443
444 1 -0.030121875 -0.00125 0.018309375 0.197842
445 1 -0.030121875 -0.00125 0.019490625 0.200359
446 1 -0.030121875 -0.00125 0.020671875 0.146909
447 1 -0.030121875 0.000116666666667 -0.020671875 0.260205
448 1 -0.030121875 0.000116666666667 -0.019490625 0.33663
449 1 -0.030121875 0.000116666666667 -0.018309375 0.377405
450 1 -0.030121875 0.000116666666667 -0.017128125 0.428418
451 1 -0.030121875 0.000116666666667 -0.015946875 0.472337
452 1 -0.030121875 0.000116666666667 -0.014765625 0.48496
453 1 -0.030121875 0.000116666666667 -0.013584375 0.534943
454 1 -0.030121875 0.000116666666667 -0.012403125 0.526322
455 1 -0.030121875 0.000116666666667 -0.011221875 0.567513
456 1 -0.030121875 0.000116666666667 -0.010040625 0.544218
457 1 -0.030121875 0.000116666666667 -0.008859375 0.581427
458 1 -0.030121875 0.000116666666667 -0.007678125 0.550058
459 1 -0.030121875 0.000116666666667 -0.006496875 0.586524
460 1 -0.030121875 0.000116666666667 -0.005315625 0.550999
461 1 -0.030121875 0.000116666666667 -0.004134375 0.591329
462 1 -0.030121875 0.000116666666667 -0.002953125 0.550394
463 1 -0.030121875 0.000116666666667 -0.001771875 0.596744
464 1 -0.030121875 0.000116666666667 -0.000590625 0.550436
465 1 -0.030121875 0.000116666666667 0.000590625 0.603695
466 1 -0.030121875 0.000116666666667 0.001771875 0.549642
467 1 -0.030121875 0.000116666666667 0.002953125 0.610334
468 1 -0.030121875 0.000116666666667 0.004134375 0.539685
469 1 -0.030121875 0.000116666666667 0.005315625 0.613976
470 1 -0.030121875 0.000116666666667 0.006496875 0.519716
471 1 -0.030121875 0.000116666666667 0.007678125 0.598978
472 1 -0.030121875 0.000116666666667 0.008859375 0.478938
473 1 -0.030121875 0.000116666666667 0.010040625 0.561673
474 1 -0.030121875 0.000116666666667 0.011221875 0.425274
475 1 -0.030121875 0.000116666666667 0.012403125 0.502285
476 1 -0.030121875 0.000116666666667 0.013584375 0.356413
477 1 -0.030121875 0.000116666666667 0.014765625 0.40801
478 1 -0.030121875 0.000116666666667 0.015946875 0.272998
479 1 -0.030121875 0.000116666666667 0.017128125 0.293443
480 1 -0.030121875 0.000116666666667 0.018309375 0.197842
481 1 -0.030121875 0.000116666666667 0.019490625 0.200359
482 1 -0.030121875 0.000116666666667 0.020671875 0.146909
483 1 -0.028940625 -0.00261666666667 -0.021853125 0.386398
484 1 -0.028940625 -0.00261666666667 -0.020671875 0.403276
485 1 -0.028940625 -0.00261666666667 -0.019490625 0.487454
486 1 -0.028940625 -0.00261666666667 -0.018309375 0.515339
487 1 -0.028940625 -0.00261666666667 -0.017128125 0.545423
488 1 -0.028940625 -0.00261666666667 -0.015946875 0.568074
489 1 -0.028940625 -0.00261666666667 -0.014765625 0.582797
490 1 -0.028940625 -0.00261666666667 -0.013584375 0.598548
491 1 -0.028940625 -0.00261666666667 -0.012403125 0.607878
492 1 -0.028940625 -0.00261666666667 -0.011221875 0.619377
493 1 -0.028940625 -0.00261666666667 -0.010040625 0.622301
494 1 -0.028940625 -0.00261666666667 -0.008859375 0.630418
495 1 -0.028940625 -0.00261666666667 -0.007678125 0.628013
496 1 -0.028940625 -0.00261666666667 -0.006496875 0.6372
497 1 -0.028940625 -0.00261666666667 -0.005315625 0.631799
498 1 -0.028940625 -0.00261666666667 -0.004134375 0.639451
499 1 -0.028940625 -0.00261666666667 -0.002953125 0.632425
500 1 -0.028940625 -0.00261666666667 -0.001771875 0.642958
501 1 -0.028940625 -0.00261666666667 -0.000590625 0.635642
502 1 -0.028940625 -0.00261666666667 0.000590625 0.646805
503 1 -0.028940625 -0.00261666666667 0.001771875 0.635637
504 1 -0.028940625 -0.00261666666667 0.002953125 0.652055
505 1 -0.028940625 -0.00261666666667 0.004134375 0.632747
506 1 -0.028940625 -0.00261666666667 0.005315625 0.649811
507 1 -0.028940625 -0.00261666666667 0.006496875 0.621042
508 1 -0.028940625 -0.00261666666667 0.007678125 0.642526
509 1 -0.028940625 -0.00261666666667 0.008859375 0.602093
510 1 -0.028940625 -0.00261666666667 0.010040625 0.626807
511 1 -0.028940625 -0.00261666666667 0.011221875 0.570764
512 1 -0.028940625 -0.00261666666667 0.012403125 0.603011
513 1 -0.028940625 -0.00261666666667 0.013584375 0.528485
514 1 -0.028940625 -0.00261666666667 0.014765625 0.540953
515 1 -0.028940625 -0.00261666666667 0.015946875 0.461473
516 1 -0.028940625 -0.00261666666667 0.017128125 0.439899
517 1 -0.028940625 -0.00261666666667 0.018309375 0.381493
518 1 -0.028940625 -0.00261666666667 0.019490625 0.327923
519 1 -0.028940625 -0.00261666666667 0.020671875 0.30835
520 1 -0.028940625 -0.00261666666667 0.021853125 0.237086
521 1 -0.028940625 -0.00125 -0.021853125 0.386398
522 1 -0.028940625 -0.00125 -0.020671875 0.403276
523 1 -0.028940625 -0.00125 -0.019490625 0.487454
524 1 -0.028940625 -0.00125 -0.018309375 0.515339
525 1 -0.028940625 -0.00125 -0.017128125 0.545423
526 1 -0.028940625 -0.00125 -0.015946875 0.568074
527 1 -0.028940625 -0.00125 -0.014765625 0.582797
528 1 -0.028940625 -0.00125 -0.013584375 0.598548
529 1 -0.028940625 -0.00125 -0.012403125 0.607878
530 1 -0.028940625 -0.00125 -0.011221875 0.619377
531 1 -0.028940625 -0.00125 -0.010040625 0.622301
532 1 -0.028940625 -0.00125 -0.008859375 0.630418
533 1 -0.028940625 -0.00125 -0.007678125 0.628013
534 1 -0.028940625 -0.00125 -0.006496875 0.6372
535 1 -0.028940625 -0.00125 -0.005315625 0.631799
536 1 -0.028940625 -0.00125 -0.004134375 0.639451
537 1 -0.028940625 -0.00125 -0.002953125 0.632425