ITEM: TIMESTEP
0
ITEM: NUMBER OF ATOMS
9240
ITEM: BOX BOUNDS ss ss ss
-3.7007399999999996e-02 3.7007399999999996e-02
-2.0002499999999999e-03 2.5000000000000004e-07
-3.7007399999999996e-02 3.7007399999999996e-02
ITEM: ATOMS id type x y z c_1
0 1 -0.037209375 -0.00261666666667 -0.000590625 0.306674
1 1 -0.037209375 -0.00125 -0.000590625 0.306674
2 1 -0.037209375 0.000116666666667 -0.000590625 0.306674
3 1 -0.036028125 -0.00261666666667 -0.007678125 0.241589
4 1 -0.036028125 -0.00261666666667 -0.006496875 0.152112
5 1 -0.036028125 -0.00261666666667 -0.005315625 0.250233
6 1 -0.036028125 -0.00261666666667 -0.004134375 0.161763
7 1 -0.036028125 -0.00261666666667 -0.002953125 0.258821
8 1 -0.036028125 -0.00261666666667 -0.001771875 0.172586
9 1 -0.036028125 -0.00261666666667 -0.000590625 0.269278
10 1 -0.036028125 -0.00261666666667 0.000590625 0.182571
11 1 -0.036028125 -0.00261666666667 0.001771875 0.277452
12 1 -0.036028125 -0.00261666666667 0.002953125 0.188089
13 1 -0.036028125 -0.00261666666667 0.004134375 0.277835
14 1 -0.036028125 -0.00261666666667 0.005315625 0.18323
15 1 -0.036028125 -0.00261666666667 0.006496875 0.266662
16 1 -0.036028125 -0.00261666666667 0.007678125 0.168807
17 1 -0.036028125 -0.00125 -0.007678125 0.241589
18 1 -0.036028125 -0.00125 -0.006496875 0.152112
19 1 -0.036028125 -0.00125 -0.005315625 0.250233
20 1 -0.036028125 -0.00125 -0.004134375 0.161763
21 1 -0.036028125 -0.00125 -0.002953125 0.258821
22 1 -0.036028125 -0.00125 -0.001771875 0.172586
23 1 -0.036028125 -0.00125 -0.000590625 0.269278
24 1 -0.036028125 -0.00125 0.000590625 0.182571
25 1 -0.036028125 -0.00125 0.001771875 0.277452
26 1 -0.036028125 -0.00125 0.002953125 0.188089
27 1 -0.036028125 -0.00125 0.004134375 0.277835
28 1 -0.036028125 -0.00125 0.005315625 0.18323
29 1 -0.036028125 -0.00125 0.006496875 0.266662
30 1 -0.036028125 -0.00125 0.007678125 0.168807
31 1 -0.036028125 0.000116666666667 -0.007678125 0.241589
32 1 -0.036028125 0.000116666666667 -0.006496875 0.152112
33 1 -0.036028125 0.000116666666667 -0.005315625 0.250233
34 1 -0.036028125 0.000116666666667 -0.004134375 0.161763
35 1 -0.036028125 0.000116666666667 -0.002953125 0.258821
36 1 -0.036028125 0.000116666666667 -0.001771875 0.172586
37 1 -0.036028125 0.000116666666667 -0.000590625 0.269278
38 1 -0.036028125 0.000116666666667 0.000590625 0.182571
39 1 -0.036028125 0.000116666666667 0.001771875 0.277452
40 1 -0.036028125 0.000116666666667 0.002953125 0.188089
41 1 -0.036028125 0.000116666666667 0.004134375 0.277835
42 1 -0.036028125 0.000116666666667 0.005315625 0.18323
43 1 -0.036028125 0.000116666666667 0.006496875 0.266662
44 1 -0.036028125 0.000116666666667 0.007678125 0.168807
45 1 -0.034846875 -0.00261666666667 -0.011221875 0.136196
46 1 -0.034846875 -0.00261666666667 -0.010040625 0.183912
47 1 -0.034846875 -0.00261666666667 -0.008859375 0.153526
48 1 -0.034846875 -0.00261666666667 -0.007678125 0.196311
49 1 -0.034846875 -0.00261666666667 -0.006496875 0.166555
50 1 -0.034846875 -0.00261666666667 -0.005315625 0.205674
51 1 -0.034846875 -0.00261666666667 -0.004134375 0.179446
52 1 -0.034846875 -0.00261666666667 -0.002953125 0.21543
53 1 -0.034846875 -0.00261666666667 -0.001771875 0.193937
54 1 -0.034846875 -0.00261666666667 -0.000590625 0.225437
55 1 -0.034846875 -0.00261666666667 0.000590625 0.208098
56 1 -0.034846875 -0.00261666666667 0.001771875 0.233537
57 1 -0.034846875 -0.00261666666667 0.002953125 0.216926
58 1 -0.034846875 -0.00261666666667 0.004134375 0.231458
59 1 -0.034846875 -0.00261666666667 0.005315625 0.214975
60 1 -0.034846875 -0.00261666666667 0.006496875 0.218596
61 1 -0.034846875 -0.00261666666667 0.007678125 0.197251
62 1 -0.034846875 -0.00261666666667 0.008859375 0.193052
63 1 -0.034846875 -0.00261666666667 0.010040625 0.16806
64 1 -0.034846875 -0.00261666666667 0.011221875 0.16399
65 1 -0.034846875 -0.00125 -0.011221875 0.136196
66 1 -0.034846875 -0.00125 -0.010040625 0.183912
67 1 -0.034846875 -0.00125 -0.008859375 0.153526
68 1 -0.034846875 -0.00125 -0.007678125 0.196311
69 1 -0.034846875 -0.00125 -0.006496875 0.166555
70 1 -0.034846875 -0.00125 -0.005315625 0.205674
71 1 -0.034846875 -0.00125 -0.004134375 0.179446
72 1 -0.034846875 -0.00125 -0.002953125 0.21543
73 1 -0.034846875 -0.00125 -0.001771875 0.193937
74 1 -0.034846875 -0.00125 -0.000590625 0.225437
75 1 -0.034846875 -0.00125 0.000590625 0.208098
76 1 -0.034846875 -0.00125 0.001771875 0.233537
77 1 -0.034846875 -0.00125 0.002953125 0.216926
78 1 -0.034846875 -0.00125 0.004134375 0.231458
79 1 -0.034846875 -0.00125 0.005315625 0.214975
80 1 -0.034846875 -0.00125 0.006496875 0.218596
81 1 -0.034846875 -0.00125 0.007678125 0.197251
82 1 -0.034846875 -0.00125 0.008859375 0.193052
83 1 -0.034846875 -0.00125 0.010040625 0.16806
84 1 -0.034846875 -0.00125 0.011221875 0.16399
85 1 -0.034846875 0.000116666666667 -0.011221875 0.136196
86 1 -0.034846875 0.000116666666667 -0.010040625 0.183912
87 1 -0.034846875 0.000116666666667 -0.008859375 0.153526
88 1 -0.034846875 0.000116666666667 -0.007678125 0.196311
89 1 -0.034846875 0.000116666666667 -0.006496875 0.166555
90 1 -0.034846875 0.000116666666667 -0.005315625 0.205674
91 1 -0.034846875 0.000116666666667 -0.004134375 0.179446
92 1 -0.034846875 0.000116666666667 -0.002953125 0.21543
93 1 -0.034846875 0.000116666666667 -0.001771875 0.193937
94 1 -0.034846875 0.000116666666667 -0.000590625 0.225437
95 1 -0.034846875 0.000116666666667 0.000590625 0.208098
96 1 -0.034846875 0.000116666666667 0.001771875 0.233537
97 1 -0.034846875 0.000116666666667 0.002953125 0.216926
98 1 -0.034846875 0.000116666666667 0.004134375 0.231458
99 1 -0.034846875 0.000116666666667 0.005315625 0.214975
100 1 -0.034846875 0.000116666666667 0.006496875 0.218596
101 1 -0.034846875 0.000116666666667 0.007678125 0.197251
102 1 -0.034846875 0.000116666666667 0.008859375 0.193052
103 1 -0.034846875 0.000116666666667 0.010040625 0.16806
104 1 -0.034846875 0.000116666666667 0.011221875 0.16399
105 1 -0.033665625 -0.00261666666667 -0.013584375 0.176985
106 1 -0.033665625 -0.00261666666667 -0.012403125 0.284434
107 1 -0.033665625 -0.00261666666667 -0.011221875 0.219055
108 1 -0.033665625 -0.00261666666667 -0.010040625 0.314564
109 1 -0.033665625 -0.00261666666667 -0.008859375 0.249791
110 1 -0.033665625 -0.00261666666667 -0.007678125 0.332043
111 1 -0.033665625 -0.00261666666667 -0.006496875 0.272623
112 1 -0.033665625 -0.00261666666667 -0.005315625 0.34674
113 1 -0.033665625 -0.00261666666667 -0.004134375 0.292123
114 1 -0.033665625 -0.00261666666667 -0.002953125 0.361093
115 1 -0.033665625 -0.00261666666667 -0.001771875 0.313179
116 1 -0.033665625 -0.00261666666667 -0.000590625 0.378171
117 1 -0.033665625 -0.00261666666667 0.000590625 0.331991
118 1 -0.033665625 -0.00261666666667 0.001771875 0.390977
119 1 -0.033665625 -0.00261666666667 0.002953125 0.342705
120 1 -0.033665625 -0.00261666666667 0.004134375 0.392974
121 1 -0.033665625 -0.00261666666667 0.005315625 0.335014
122 1 -0.033665625 -0.00261666666667 0.006496875 0.376785
123 1 -0.033665625 -0.00261666666667 0.007678125 0.306908
124 1 -0.033665625 -0.00261666666667 0.008859375 0.343281
125 1 -0.033665625 -0.00261666666667 0.010040625 0.258847
126 1 -0.033665625 -0.00261666666667 0.011221875 0.293384
127 1 -0.033665625 -0.00261666666667 0.012403125 0.201729
128 1 -0.033665625 -0.00261666666667 0.013584375 0.237582
129 1 -0.033665625 -0.00125 -0.013584375 0.176985
130 1 -0.033665625 -0.00125 -0.012403125 0.284434
131 1 -0.033665625 -0.00125 -0.011221875 0.219055
132 1 -0.033665625 -0.00125 -0.010040625 0.314564
133 1 -0.033665625 -0.00125 -0.008859375 0.249791
134 1 -0.033665625 -0.00125 -0.007678125 0.332043
135 1 -0.033665625 -0.00125 -0.006496875 0.272623
136 1 -0.033665625 -0.00125 -0.005315625 0.34674
137 1 -0.033665625 -0.00125 -0.004134375 0.292123
138 1 -0.033665625 -0.00125 -0.002953125 0.361093
139 1 -0.033665625 -0.00125 -0.001771875 0.313179
140 1 -0.033665625 -0.00125 -0.000590625 0.378171
141 1 -0.033665625 -0.00125 0.000590625 0.331991
142 1 -0.033665625 -0.00125 0.001771875 0.390977
143 1 -0.033665625 -0.00125 0.002953125 0.342705
144 1 -0.033665625 -0.00125 0.004134375 0.392974
145 1 -0.033665625 -0.00125 0.005315625 0.335014
146 1 -0.033665625 -0.00125 0.006496875 0.376785
147 1 -0.033665625 -0.00125 0.007678125 0.306908
148 1 -0.033665625 -0.00125 0.008859375 0.343281
149 1 -0.033665625 -0.00125 0.010040625 0.258847
150 1 -0.033665625 -0.00125 0.011221875 0.293384
151 1 -0.033665625 -0.00125 0.012403125 0.201729
152 1 -0.033665625 -0.00125 0.013584375 0.237582
153 1 -0.033665625 0.000116666666667 -0.013584375 0.176985
154 1 -0.033665625 0.000116666666667 -0.012403125 0.284434
155 1 -0.033665625 0.000116666666667 -0.011221875 0.219055
156 1 -0.033665625 0.000116666666667 -0.010040625 0.314564
157 1 -0.033665625 0.000116666666667 -0.008859375 0.249791
158 1 -0.033665625 0.000116666666667 -0.007678125 0.332043
159 1 -0.033665625 0.000116666666667 -0.006496875 0.272623
160 1 -0.033665625 0.000116666666667 -0.005315625 0.34674
161 1 -0.033665625 0.000116666666667 -0.004134375 0.292123
162 1 -0.033665625 0.000116666666667 -0.002953125 0.361093
163 1 -0.033665625 0.000116666666667 -0.001771875 0.313179
164 1 -0.033665625 0.000116666666667 -0.000590625 0.378171
165 1 -0.033665625 0.000116666666667 0.000590625 0.331991
166 1 -0.033665625 0.000116666666667 0.001771875 0.390977
167 1 -0.033665625 0.000116666666667 0.002953125 0.342705
168 1 -0.033665625 0.000116666666667 0.004134375 0.392974
169 1 -0.033665625 0.000116666666667 0.005315625 0.335014
170 1 -0.033665625 0.000116666666667 0.006496875 0.376785
171 1 -0.033665625 0.000116666666667 0.007678125 0.306908
172 1 -0.033665625 0.000116666666667 0.008859375 0.343281
173 1 -0.033665625 0.000116666666667 0.010040625 0.258847
174 1 -0.033665625 0.000116666666667 0.011221875 0.293384
175 1 -0.033665625 0.000116666666667 0.012403125 0.201729
176 1 -0.033665625 0.000116666666667 0.013584375 0.237582
177 1 -0.032484375 -0.00261666666667 -0.018309375 0.122804
178 1 -0.032484375 -0.00261666666667 -0.017128125 0.18433
179 1 -0.032484375 -0.00261666666667 -0.015946875 0.189066
180 1 -0.032484375 -0.00261666666667 -0.014765625 0.239607
181 1 -0.032484375 -0.00261666666667 -0.013584375 0.257191
182 1 -0.032484375 -0.00261666666667 -0.012403125 0.288655
183 1 -0.032484375 -0.00261666666667 -0.011221875 0.311547
184 1 -0.032484375 -0.00261666666667 -0.010040625 0.31808
185 1 -0.032484375 -0.00261666666667 -0.008859375 0.348338
186 1 -0.032484375 -0.00261666666667 -0.007678125 0.337788
187 1 -0.032484375 -0.00261666666667 -0.006496875 0.370761
188 1 -0.032484375 -0.00261666666667 -0.005315625 0.35182
189 1 -0.032484375 -0.00261666666667 -0.004134375 0.390293
190 1 -0.032484375 -0.00261666666667 -0.002953125 0.363468
191 1 -0.032484375 -0.00261666666667 -0.001771875 0.413503
192 1 -0.032484375 -0.00261666666667 -0.000590625 0.376029
193 1 -0.032484375 -0.00261666666667 0.000590625 0.43541
194 1 -0.032484375 -0.00261666666667 0.001771875 0.387014
195 1 -0.032484375 -0.00261666666667 0.002953125 0.450703
196 1 -0.032484375 -0.00261666666667 0.004134375 0.386568
197 1 -0.032484375 -0.00261666666667 0.005315625 0.454867
198 1 -0.032484375 -0.00261666666667 0.006496875 0.372008
199 1 -0.032484375 -0.00261666666667 0.007678125 0.429819
200 1 -0.032484375 -0.00261666666667 0.008859375 0.332949
201 1 -0.032484375 -0.00261666666667 0.010040625 0.376398
202 1 -0.032484375 -0.00261666666667 0.011221875 0.277848
203 1 -0.032484375 -0.00261666666667 0.012403125 0.300303
204 1 -0.032484375 -0.00261666666667 0.013584375 0.213499
205 1 -0.032484375 -0.00261666666667 0.014765625 0.214967
206 1 -0.032484375 -0.00261666666667 0.015946875 0.155689
207 1 -0.032484375 -0.00261666666667 0.017128125 0.144243
208 1 -0.032484375 -0.00261666666667 0.018309375 0.112651
209 1 -0.032484375 -0.00125 -0.018309375 0.122804
210 1 -0.032484375 -0.00125 -0.017128125 0.18433
211 1 -0.032484375 -0.00125 -0.015946875 0.189066
212 1 -0.032484375 -0.00125 -0.014765625 0.239607
213 1 -0.032484375 -0.00125 -0.013584375 0.257191
214 1 -0.032484375 -0.00125 -0.012403125 0.288655
215 1 -0.032484375 -0.00125 -0.011221875 0.311547
216 1 -0.032484375 -0.00125 -0.010040625 0.31808
217 1 -0.032484375 -0.00125 -0.008859375 0.348338
218 1 -0.032484375 -0.00125 -0.007678125 0.337788
219 1 -0.032484375 -0.00125 -0.006496875 0.370761
220 1 -0.032484375 -0.00125 -0.005315625 0.35182
221 1 -0.032484375 -0.00125 -0.004134375 0.390293
222 1 -0.032484375 -0.00125 -0.002953125 0.363468
223 1 -0.032484375 -0.00125 -0.001771875 0.413503
224 1 -0.032484375 -0.00125 -0.000590625 0.376029
225 1 -0.032484375 -0.00125 0.000590625 0.43541
226 1 -0.032484375 -0.00125 0.001771875 0.387014
227 1 -0.032484375 -0.00125 0.002953125 0.450703
228 1 -0.032484375 -0.00125 0.004134375 0.386568
229 1 -0.032484375 -0.00125 0.005315625 0.454867
230 1 -0.032484375 -0.00125 0.006496875 0.372008
231 1 -0.032484375 -0.00125 0.007678125 0.429819
232 1 -0.032484375 -0.00125 0.008859375 0.332949
233 1 -0.032484375 -0.00125 0.010040625 0.376398
234 1 -0.032484375 -0.00125 0.011221875 0.277848
235 1 -0.032484375 -0.00125 0.012403125 0.300303
236 1 -0.032484375 -0.00125 0.013584375 0.213499
237 1 -0.032484375 -0.00125 0.014765625 0.214967
238 1 -0.032484375 -0.00125 0.015946875 0.155689
239 1 -0.032484375 -0.00125 0.017128125 0.144243
240 1 -0.032484375 -0.00125 0.018309375 0.112651
241 1 -0.032484375 0.000116666666667 -0.018309375 0.122804
242 1 -0.032484375 0.000116666666667 -0.017128125 0.18433
243 1 -0.032484375 0.000116666666667 -0.015946875 0.189066
244 1 -0.032484375 0.000116666666667 -0.014765625 0.239607
245 1 -0.032484375 0.000116666666667 -0.013584375 0.257191
246 1 -0.032484375 0.000116666666667 -0.012403125 0.288655
247 1 -0.032484375 0.000116666666667 -0.011221875 0.311547
248 1 -0.032484375 0.000116666666667 -0.010040625 0.31808
249 1 -0.032484375 0.000116666666667 -0.008859375 0.348338
250 1 -0.032484375 0.000116666666667 -0.007678125 0.337788
251 1 -0.032484375 0.000116666666667 -0.006496875 0.370761
252 1 -0.032484375 0.000116666666667 -0.005315625 0.35182
253 1 -0.032484375 0.000116666666667 -0.004134375 0.390293
254 1 -0.032484375 0.000116666666667 -0.002953125 0.363468
255 1 -0.032484375 0.000116666666667 -0.001771875 0.413503
256 1 -0.032484375 0.000116666666667 -0.000590625 0.376029
257 1 -0.032484375 0.000116666666667 0.000590625 0.43541
258 1 -0.032484375 0.000116666666667 0.001771875 0.387014
259 1 -0.032484375 0.000116666666667 0.002953125 0.450703
260 1 -0.032484375 0.000116666666667 0.004134375 0.386568
261 1 -0.032484375 0.000116666666667 0.005315625 0.454867
262 1 -0.032484375 0.000116666666667 0.006496875 0.372008
263 1 -0.032484375 0.000116666666667 0.007678125 0.429819
264 1 -0.032484375 0.000116666666667 0.008859375 0.332949
265 1 -0.032484375 0.000116666666667 0.010040625 0.376398
266 1 -0.032484375 0.000116666666667 0.011221875 0.277848
267 1 -0.032484375 0.000116666666667 0.012403125 0.300303
268 1 -0.032484375 0.000116666666667 0.013584375 0.213499
269 1 -0.032484375 0.000116666666667 0.014765625 0.214967
270 1 -0.032484375 0.000116666666667 0.015946875 0.155689
271 1 -0.032484375 0.000116666666667 0.017128125 0.144243
272 1 -0.032484375 0.000116666666667 0.018309375 0.112651
273 1 -0.031303125 -0.00261666666667 -0.019490625 0.242637
274 1 -0.031303125 -0.00261666666667 -0.018309375 0.215748
275 1 -0.031303125 -0.00261666666667 -0.017128125 0.32561
276 1 -0.031303125 -0.00261666666667 -0.015946875 0.321801
277 1 -0.031303125 -0.00261666666667 -0.014765625 0.403545
278 1 -0.031303125 -0.00261666666667 -0.013584375 0.412444
279 1 -0.031303125 -0.00261666666667 -0.012403125 0.456071
280 1 -0.031303125 -0.00261666666667 -0.011221875 0.473646
281 1 -0.031303125 -0.00261666666667 -0.010040625 0.484572
282 1 -0.031303125 -0.00261666666667 -0.008859375 0.506271
283 1 -0.031303125 -0.00261666666667 -0.007678125 0.498353
284 1 -0.031303125 -0.00261666666667 -0.006496875 0.526214
285 1 -0.031303125 -0.00261666666667 -0.005315625 0.508844
286 1 -0.031303125 -0.00261666666667 -0.004134375 0.53894
287 1 -0.031303125 -0.00261666666667 -0.002953125 0.516576
288 1 -0.031303125 -0.00261666666667 -0.001771875 0.551584
289 1 -0.031303125 -0.00261666666667 -0.000590625 0.528499
290 1 -0.031303125 -0.00261666666667 0.000590625 0.563271
291 1 -0.031303125 -0.00261666666667 0.001771875 0.538203
292 1 -0.031303125 -0.00261666666667 0.002953125 0.57511
293 1 -0.031303125 -0.00261666666667 0.004134375 0.543834
294 1 -0.031303125 -0.00261666666667 0.005315625 0.57797
295 1 -0.031303125 -0.00261666666667 0.006496875 0.538797
296 1 -0.031303125 -0.00261666666667 0.007678125 0.563706
297 1 -0.031303125 -0.00261666666667 0.008859375 0.514441
298 1 -0.031303125 -0.00261666666667 0.010040625 0.519058
299 1 -0.031303125 -0.00261666666667 0.011221875 0.463934
300 1 -0.031303125 -0.00261666666667 0.012403125 0.442151
301 1 -0.031303125 -0.00261666666667 0.013584375 0.393037
302 1 -0.031303125 -0.00261666666667 0.014765625 0.338026
303 1 -0.031303125 -0.00261666666667 0.015946875 0.30499
304 1 -0.031303125 -0.00261666666667 0.017128125 0.234771
305 1 -0.031303125 -0.00261666666667 0.018309375 0.227323
306 1 -0.031303125 -0.00261666666667 0.019490625 0.15738
307 1 -0.031303125 -0.00125 -0.019490625 0.242637
308 1 -0.031303125 -0.00125 -0.018309375 0.215748
309 1 -0.031303125 -0.00125 -0.017128125 0.32561
310 1 -0.031303125 -0.00125 -0.015946875 0.321801
311 1 -0.031303125 -0.00125 -0.014765625 0.403545
312 1 -0.031303125 -0.00125 -0.013584375 0.412444
313 1 -0.031303125 -0.00125 -0.012403125 0.456071
314 1 -0.031303125 -0.00125 -0.011221875 0.473646
315 1 -0.031303125 -0.00125 -0.010040625 0.484572
316 1 -0.031303125 -0.00125 -0.008859375 0.506271
317 1 -0.031303125 -0.00125 -0.007678125 0.498353
318 1 -0.031303125 -0.00125 -0.006496875 0.526214
319 1 -0.031303125 -0.00125 -0.005315625 0.508844
320 1 -0.031303125 -0.00125 -0.004134375 0.53894
321 1 -0.031303125 -0.00125 -0.002953125 0.516576
322 1 -0.031303125 -0.00125 -0.001771875 0.551584
323 1 -0.031303125 -0.00125 -0.000590625 0.528499
324 1 -0.031303125 -0.00125 0.000590625 0.563271
325 1 -0.031303125 -0.00125 0.001771875 0.538203
326 1 -0.031303125 -0.00125 0.002953125 0.57511
327 1 -0.031303125 -0.00125 0.004134375 0.543834
328 1 -0.031303125 -0.00125 0.005315625 0.57797
329 1 -0.031303125 -0.00125 0.006496875 0.538797
330 1 -0.031303125 -0.00125 0.007678125 0.563706
331 1 -0.031303125 -0.00125 0.008859375 0.514441
332 1 -0.031303125 -0.00125 0.010040625 0.519058
333 1 -0.031303125 -0.00125 0.011221875 0.463934
334 1 -0.031303125 -0.00125 0.012403125 0.442151
335 1 -0.031303125 -0.00125 0.013584375 0.393037
336 1 -0.031303125 -0.00125 0.014765625 0.338026
337 1 -0.031303125 -0.00125 0.015946875 0.30499
338 1 -0.031303125 -0.00125 0.017128125 0.234771
339 1 -0.031303125 -0.00125 0.018309375 0.227323
340 1 -0.031303125 -0.00125 0.019490625 0.15738
341 1 -0.031303125 0.000116666666667 -0.019490625 0.242637
342 1 -0.031303125 0.000116666666667 -0.018309375 0.215748
343 1 -0.031303125 0.000116666666667 -0.017128125 0.32561
344 1 -0.031303125 0.000116666666667 -0.015946875 0.321801
345 1 -0.031303125 0.000116666666667 -0.014765625 0.403545
346 1 -0.031303125 0.000116666666667 -0.013584375 0.412444
347 1 -0.031303125 0.000116666666667 -0.012403125 0.456071
348 1 -0.031303125 0.000116666666667 -0.011221875 0.473646
349 1 -0.031303125 0.000116666666667 -0.010040625 0.484572
350 1 -0.031303125 0.000116666666667 -0.008859375 0.506271
351 1 -0.031303125 0.000116666666667 -0.007678125 0.498353
352 1 -0.031303125 0.000116666666667 -0.006496875 0.526214
353 1 -0.031303125 0.000116666666667 -0.005315625 0.508844
354 1 -0.031303125 0.000116666666667 -0.004134375 0.53894
355 1 -0.031303125 0.000116666666667 -0.002953125 0.516576
356 1 -0.031303125 0.000116666666667 -0.001771875 0.551584
357 1 -0.031303125 0.000116666666667 -0.000590625 0.528499
358 1 -0.031303125 0.000116666666667 0.000590625 0.563271
359 1 -0.031303125 0.000116666666667 0.001771875 0.538203
360 1 -0.031303125 0.000116666666667 0.002953125 0.57511
361 1 -0.031303125 0.000116666666667 0.004134375 0.543834
362 1 -0.031303125 0.000116666666667 0.005315625 0.57797
363 1 -0.031303125 0.000116666666667 0.006496875 0.538797
364 1 -0.031303125 0.000116666666667 0.007678125 0.563706
365 1 -0.031303125 0.000116666666667 0.008859375 0.514441
366 1 -0.031303125 0.000116666666667 0.010040625 0.519058
367 1 -0.031303125 0.000116666666667 0.011221875 0.463934
368 1 -0.031303125 0.000116666666667 0.012403125 0.442151
369 1 -0.031303125 0.000116666666667 0.013584375 0.393037
370 1 -0.031303125 0.000116666666667 0.014765625 0.338026
371 1 -0.031303125 0.000116666666667 0.015946875 0.30499
372 1 -0.031303125 0.000116666666667 0.017128125 0.234771
373 1 -0.031303125 0.000116666666667 0.018309375 0.227323
374 1 -0.031303125 0.000116666666667 0.019490625 0.15738
375 1 -0.030121875 -0.00261666666667 -0.020671875 0.1745
376 1 -0.030121875 -0.00261666666667 -0.019490625 0.2505
377 1 -0.030121875 -0.00261666666667 -0.018309375 0.282188
378 1 -0.030121875 -0.00261666666667 -0.017128125 0.350704
379 1 -0.030121875 -0.00261666666667 -0.015946875 0.388386
380 1 -0.030121875 -0.00261666666667 -0.014765625 0.422686
381 1 -0.030121875 -0.00261666666667 -0.013584375 0.468888
382 1 -0.030121875 -0.00261666666667 -0.012403125 0.466931
383 1 -0.030121875 -0.00261666666667 -0.011221875 0.510681
384 1 -0.030121875 -0.00261666666667 -0.010040625 0.48575
385 1 -0.030121875 -0.00261666666667 -0.008859375 0.530232
386 1 -0.030121875 -0.00261666666667 -0.007678125 0.496023
387 1 -0.030121875 -0.00261666666667 -0.006496875 0.536767
388 1 -0.030121875 -0.00261666666667 -0.005315625 0.502265
389 1 -0.030121875 -0.00261666666667 -0.004134375 0.5408
390 1 -0.030121875 -0.00261666666667 -0.002953125 0.507723
391 1 -0.030121875 -0.00261666666667 -0.001771875 0.549469
392 1 -0.030121875 -0.00261666666667 -0.000590625 0.516786
393 1 -0.030121875 -0.00261666666667 0.000590625 0.56242
394 1 -0.030121875 -0.00261666666667 0.001771875 0.525787
395 1 -0.030121875 -0.00261666666667 0.002953125 0.578083
396 1 -0.030121875 -0.00261666666667 0.004134375 0.528581
397 1 -0.030121875 -0.00261666666667 0.005315625 0.595379
398 1 -0.030121875 -0.00261666666667 0.006496875 0.522867
399 1 -0.030121875 -0.00261666666667 0.007678125 0.596365
400 1 -0.030121875 -0.00261666666667 0.008859375 0.495389
401 1 -0.030121875 -0.00261666666667 0.010040625 0.576077
402 1 -0.030121875 -0.00261666666667 0.011221875 0.452431
403 1 -0.030121875 -0.00261666666667 0.012403125 0.526801
404 1 -0.030121875 -0.00261666666667 0.013584375 0.3852
405 1 -0.030121875 -0.00261666666667 0.014765625 0.431643
406 1 -0.030121875 -0.00261666666667 0.015946875 0.294118
407 1 -0.030121875 -0.00261666666667 0.017128125 0.308626
408 1 -0.030121875 -0.00261666666667 0.018309375 0.210107
409 1 -0.030121875 -0.00261666666667 0.019490625 0.205394
410 1 -0.030121875 -0.00261666666667 0.020671875 0.152359
411 1 -0.030121875 -0.00125 -0.020671875 0.1745
412 1 -0.030121875 -0.00125 -0.019490625 0.2505
413 1 -0.030121875 -0.00125 -0.018309375 0.282188
414 1 -0.030121875 -0.00125 -0.017128125 0.350704
415 1 -0.030121875 -0.00125 -0.015946875 0.388386
416 1 -0.030121875 -0.00125 -0.014765625 0.422686
417 1 -0.030121875 -0.00125 -0.013584375 0.468888
418 1 -0.030121875 -0.00125 -0.012403125 0.466931
419 1 -0.030121875 -0.00125 -0.011221875 0.510681
420 1 -0.030121875 -0.00125 -0.010040625 0.48575
421 1 -0.030121875 -0.00125 -0.008859375 0.530232
422 1 -0.030121875 -0.00125 -0.007678125 0.496023
423 1 -0.030121875 -0.00125 -0.006496875 0.536767
424 1 -0.030121875 -0.00125 -0.005315625 0.502265
425 1 -0.030121875 -0.00125 -0.004134375 0.5408
426 1 -0.030121875 -0.00125 -0.002953125 0.507723
427 1 -0.030121875 -0.00125 -0.001771875 0.549469
428 1 -0.030121875 -0.00125 -0.000590625 0.516786
429 1 -0.030121875 -0.00125 0.000590625 0.56242
430 1 -0.030121875 -0.00125 0.001771875 0.525787
431 1 -0.030121875 -0.00125 0.002953125 0.578083
432 1 -0.030121875 -0.00125 0.004134375 0.528581
433 1 -0.030121875 -0.00125 0.005315625 0.595379
434 1 -0.030121875 -0.00125 0.006496875 0.522867
435 1 -0.030121875 -0.00125 0.007678125 0.596365
436 1 -0.030121875 -0.00125 0.008859375 0.495389
437 1 -0.030121875 -0.00125 0.010040625 0.576077
438 1 -0.030121875 -0.00125 0.011221875 0.452431
439 1 -0.030121875 -0.00125 0.012403125 0.526801
440 1 -0.030121875 -0.00125 0.013584375 0.3852
441 1 -0.030121875 -0.00125 0.014765625 0.431643
442 1 -0.030121875 -0.00125 0.015946875 0.294118
443 1 -0.030121875 -0.00125 0.017128125 0.308626
444 1 -0.030121875 -0.00125 0.018309375 0.210107
445 1 -0.030121875 -0.00125 0.019490625 0.205394
446 1 -0.030121875 -0.00125 0.020671875 0.152359
447 1 -0.030121875 0.000116666666667 -0.020671875 0.1745
448 1 -0.030121875 0.000116666666667 -0.019490625 0.2505
449 1 -0.030121875 0.000116666666667 -0.018309375 0.282188
450 1 -0.030121875 0.000116666666667 -0.017128125 0.350704
451 1 -0.030121875 0.000116666666667 -0.015946875 0.388386
452 1 -0.030121875 0.000116666666667 -0.014765625 0.422686
453 1 -0.030121875 0.000116666666667 -0.013584375 0.468888
454 1 -0.030121875 0.000116666666667 -0.012403125 0.466931
455 1 -0.030121875 0.000116666666667 -0.011221875 0.510681
456 1 -0.030121875 0.000116666666667 -0.010040625 0.48575
457 1 -0.030121875 0.000116666666667 -0.008859375 0.530232
458 1 -0.030121875 0.000116666666667 -0.007678125 0.496023
459 1 -0.030121875 0.000116666666667 -0.006496875 0.536767
460 1 -0.030121875 0.000116666666667 -0.005315625 0.502265
461 1 -0.030121875 0.000116666666667 -0.004134375 0.5408
462 1 -0.030121875 0.000116666666667 -0.002953125 0.507723
463 1 -0.030121875 0.000116666666667 -0.001771875 0.549469
464 1 -0.030121875 0.000116666666667 -0.000590625 0.516786
465 1 -0.030121875 0.000116666666667 0.000590625 0.56242
466 1 -0.030121875 0.000116666666667 0.001771875 0.525787
467 1 -0.030121875 0.000116666666667 0.002953125 0.578083
468 1 -0.030121875 0.000116666666667 0.004134375 0.528581
469 1 -0.030121875 0.000116666666667 0.005315625 0.595379
470 1 -0.030121875 0.000116666666667 0.006496875 0.522867
471 1 -0.030121875 0.000116666666667 0.007678125 0.596365
472 1 -0.030121875 0.000116666666667 0.008859375 0.495389
473 1 -0.030121875 0.000116666666667 0.010040625 0.576077
474 1 -0.030121875 0.000116666666667 0.011221875 0.452431
475 1 -0.030121875 0.000116666666667 0.012403125 0.526801
476 1 -0.030121875 0.000116666666667 0.013584375 0.3852
477 1 -0.030121875 0.000116666666667 0.014765625 0.431643
478 1 -0.030121875 0.000116666666667 0.015946875 0.294118
479 1 -0.030121875 0.000116666666667 0.017128125 0.308626
480 1 -0.030121875 0.000116666666667 0.018309375 0.210107
481 1 -0.030121875 0.000116666666667 0.019490625 0.205394
482 1 -0.030121875 0.000116666666667 0.020671875 0.152359
483 1 -0.028940625 -0.00261666666667 -0.021853125 0.274126
484 1 -0.028940625 -0.00261666666667 -0.020671875 0.260211
485 1 -0.028940625 -0.00261666666667 -0.019490625 0.381309
486 1 -0.028940625 -0.00261666666667 -0.018309375 0.398125
487 1 -0.028940625 -0.00261666666667 -0.017128125 0.472823
488 1 -0.028940625 -0.00261666666667 -0.015946875 0.50814
489 1 -0.028940625 -0.00261666666667 -0.014765625 0.526687
490 1 -0.028940625 -0.00261666666667 -0.013584375 0.555075
491 1 -0.028940625 -0.00261666666667 -0.012403125 0.54897
492 1 -0.028940625 -0.00261666666667 -0.011221875 0.573375
493 1 -0.028940625 -0.00261666666667 -0.010040625 0.559597
494 1 -0.028940625 -0.00261666666667 -0.008859375 0.578818
495 1 -0.028940625 -0.00261666666667 -0.007678125 0.560922
496 1 -0.028940625 -0.00261666666667 -0.006496875 0.580705
497 1 -0.028940625 -0.00261666666667 -0.005315625 0.563016
498 1 -0.028940625 -0.00261666666667 -0.004134375 0.581176
499 1 -0.028940625 -0.00261666666667 -0.002953125 0.565775
500 1 -0.028940625 -0.00261666666667 -0.001771875 0.586738
501 1 -0.028940625 -0.00261666666667 -0.000590625 0.575458
502 1 -0.028940625 -0.00261666666667 0.000590625 0.596422
503 1 -0.028940625 -0.00261666666667 0.001771875 0.585327
504 1 -0.028940625 -0.00261666666667 0.002953125 0.608661
505 1 -0.028940625 -0.00261666666667 0.004134375 0.592655
506 1 -0.028940625 -0.00261666666667 0.005315625 0.616932
507 1 -0.028940625 -0.00261666666667 0.006496875 0.592905
508 1 -0.028940625 -0.00261666666667 0.007678125 0.618663
509 1 -0.028940625 -0.00261666666667 0.008859375 0.582648
510 1 -0.028940625 -0.00261666666667 0.010040625 0.61121
511 1 -0.028940625 -0.00261666666667 0.011221875 0.558886
512 1 -0.028940625 -0.00261666666667 0.012403125 0.59122
513 1 -0.028940625 -0.00261666666667 0.013584375 0.518663
514 1 -0.028940625 -0.00261666666667 0.014765625 0.527465
515 1 -0.028940625 -0.00261666666667 0.015946875 0.443535
516 1 -0.028940625 -0.00261666666667 0.017128125 0.418669
517 1 -0.028940625 -0.00261666666667 0.018309375 0.350639
518 1 -0.028940625 -0.00261666666667 0.019490625 0.302476
519 1 -0.028940625 -0.00261666666667 0.020671875 0.270223
520 1 -0.028940625 -0.00261666666667 0.021853125 0.212464
521 1 -0.028940625 -0.00125 -0.021853125 0.274126
522 1 -0.028940625 -0.00125 -0.020671875 0.260211
523 1 -0.028940625 -0.00125 -0.019490625 0.381309
524 1 -0.028940625 -0.00125 -0.018309375 0.398125
525 1 -0.028940625 -0.00125 -0.017128125 0.472823
526 1 -0.028940625 -0.00125 -0.015946875 0.50814
527 1 -0.028940625 -0.00125 -0.014765625 0.526687
528 1 -0.028940625 -0.00125 -0.013584375 0.555075
529 1 -0.028940625 -0.00125 -0.012403125 0.54897
530 1 -0.028940625 -0.00125 -0.011221875 0.573375
531 1 -0.028940625 -0.00125 -0.010040625 0.559597
532 1 -0.028940625 -0.00125 -0.008859375 0.578818
533 1 -0.028940625 -0.00125 -0.007678125 0.560922
534 1 -0.028940625 -0.00125 -0.006496875 0.580705
535 1 -0.028940625 -0.00125 -0.005315625 0.563016
536 1 -0.028940625 -0.00125 -0.004134375 0.581176
537 1 -0.028940625 -0.00125 -0.002953125 0.565775
538 1 -0.028940625 -0.00125 -0.001771875 0.586738