ITEM: TIMESTEP
0
ITEM: NUMBER OF ATOMS
9240
ITEM: BOX BOUNDS ss ss ss
-3.7007399999999996e-02 3.7007399999999996e-02
-2.0002499999999999e-03 2.5000000000000004e-07
-3.7007399999999996e-02 3.7007399999999996e-02
ITEM: ATOMS id type x y z c_1
0 1 -0.037209375 -0.00261666666667 -0.000590625 0.288194
1 1 -0.037209375 -0.00125 -0.000590625 0.288194
2 1 -0.037209375 0.000116666666667 -0.000590625 0.288194
3 1 -0.036028125 -0.00261666666667 -0.007678125 0.217181
4 1 -0.036028125 -0.00261666666667 -0.006496875 0.121183
5 1 -0.036028125 -0.00261666666667 -0.005315625 0.224986
6 1 -0.036028125 -0.00261666666667 -0.004134375 0.129662
7 1 -0.036028125 -0.00261666666667 -0.002953125 0.233296
8 1 -0.036028125 -0.00261666666667 -0.001771875 0.139271
9 1 -0.036028125 -0.00261666666667 -0.000590625 0.242752
10 1 -0.036028125 -0.00261666666667 0.000590625 0.146749
11 1 -0.036028125 -0.00261666666667 0.001771875 0.247945
12 1 -0.036028125 -0.00261666666667 0.002953125 0.147982
13 1 -0.036028125 -0.00261666666667 0.004134375 0.24302
14 1 -0.036028125 -0.00261666666667 0.005315625 0.138661
15 1 -0.036028125 -0.00261666666667 0.006496875 0.225783
16 1 -0.036028125 -0.00261666666667 0.007678125 0.121396
17 1 -0.036028125 -0.00125 -0.007678125 0.217181
18 1 -0.036028125 -0.00125 -0.006496875 0.121183
19 1 -0.036028125 -0.00125 -0.005315625 0.224986
20 1 -0.036028125 -0.00125 -0.004134375 0.129662
21 1 -0.036028125 -0.00125 -0.002953125 0.233296
22 1 -0.036028125 -0.00125 -0.001771875 0.139271
23 1 -0.036028125 -0.00125 -0.000590625 0.242752
24 1 -0.036028125 -0.00125 0.000590625 0.146749
25 1 -0.036028125 -0.00125 0.001771875 0.247945
26 1 -0.036028125 -0.00125 0.002953125 0.147982
27 1 -0.036028125 -0.00125 0.004134375 0.24302
28 1 -0.036028125 -0.00125 0.005315625 0.138661
29 1 -0.036028125 -0.00125 0.006496875 0.225783
30 1 -0.036028125 -0.00125 0.007678125 0.121396
31 1 -0.036028125 0.000116666666667 -0.007678125 0.217181
32 1 -0.036028125 0.000116666666667 -0.006496875 0.121183
33 1 -0.036028125 0.000116666666667 -0.005315625 0.224986
34 1 -0.036028125 0.000116666666667 -0.004134375 0.129662
35 1 -0.036028125 0.000116666666667 -0.002953125 0.233296
36 1 -0.036028125 0.000116666666667 -0.001771875 0.139271
37 1 -0.036028125 0.000116666666667 -0.000590625 0.242752
38 1 -0.036028125 0.000116666666667 0.000590625 0.146749
39 1 -0.036028125 0.000116666666667 0.001771875 0.247945
40 1 -0.036028125 0.000116666666667 0.002953125 0.147982
41 1 -0.036028125 0.000116666666667 0.004134375 0.24302
42 1 -0.036028125 0.000116666666667 0.005315625 0.138661
43 1 -0.036028125 0.000116666666667 0.006496875 0.225783
44 1 -0.036028125 0.000116666666667 0.007678125 0.121396
45 1 -0.034846875 -0.00261666666667 -0.011221875 0.118168
46 1 -0.034846875 -0.00261666666667 -0.010040625 0.16561
47 1 -0.034846875 -0.00261666666667 -0.008859375 0.132738
48 1 -0.034846875 -0.00261666666667 -0.007678125 0.175488
49 1 -0.034846875 -0.00261666666667 -0.006496875 0.144138
50 1 -0.034846875 -0.00261666666667 -0.005315625 0.182797
51 1 -0.034846875 -0.00261666666667 -0.004134375 0.155586
52 1 -0.034846875 -0.00261666666667 -0.002953125 0.190916
53 1 -0.034846875 -0.00261666666667 -0.001771875 0.168909
54 1 -0.034846875 -0.00261666666667 -0.000590625 0.198764
55 1 -0.034846875 -0.00261666666667 0.000590625 0.181135
56 1 -0.034846875 -0.00261666666667 0.001771875 0.202699
57 1 -0.034846875 -0.00261666666667 0.002953125 0.184653
58 1 -0.034846875 -0.00261666666667 0.004134375 0.194675
59 1 -0.034846875 -0.00261666666667 0.005315625 0.175461
60 1 -0.034846875 -0.00261666666667 0.006496875 0.176915
61 1 -0.034846875 -0.00261666666667 0.007678125 0.151632
62 1 -0.034846875 -0.00261666666667 0.008859375 0.147893
63 1 -0.034846875 -0.00261666666667 0.010040625 0.119115
64 1 -0.034846875 -0.00261666666667 0.011221875 0.117272
65 1 -0.034846875 -0.00125 -0.011221875 0.118168
66 1 -0.034846875 -0.00125 -0.010040625 0.16561
67 1 -0.034846875 -0.00125 -0.008859375 0.132738
68 1 -0.034846875 -0.00125 -0.007678125 0.175488
69 1 -0.034846875 -0.00125 -0.006496875 0.144138
70 1 -0.034846875 -0.00125 -0.005315625 0.182797
71 1 -0.034846875 -0.00125 -0.004134375 0.155586
72 1 -0.034846875 -0.00125 -0.002953125 0.190916
73 1 -0.034846875 -0.00125 -0.001771875 0.168909
74 1 -0.034846875 -0.00125 -0.000590625 0.198764
75 1 -0.034846875 -0.00125 0.000590625 0.181135
76 1 -0.034846875 -0.00125 0.001771875 0.202699
77 1 -0.034846875 -0.00125 0.002953125 0.184653
78 1 -0.034846875 -0.00125 0.004134375 0.194675
79 1 -0.034846875 -0.00125 0.005315625 0.175461
80 1 -0.034846875 -0.00125 0.006496875 0.176915
81 1 -0.034846875 -0.00125 0.007678125 0.151632
82 1 -0.034846875 -0.00125 0.008859375 0.147893
83 1 -0.034846875 -0.00125 0.010040625 0.119115
84 1 -0.034846875 -0.00125 0.011221875 0.117272
85 1 -0.034846875 0.000116666666667 -0.011221875 0.118168
86 1 -0.034846875 0.000116666666667 -0.010040625 0.16561
87 1 -0.034846875 0.000116666666667 -0.008859375 0.132738
88 1 -0.034846875 0.000116666666667 -0.007678125 0.175488
89 1 -0.034846875 0.000116666666667 -0.006496875 0.144138
90 1 -0.034846875 0.000116666666667 -0.005315625 0.182797
91 1 -0.034846875 0.000116666666667 -0.004134375 0.155586
92 1 -0.034846875 0.000116666666667 -0.002953125 0.190916
93 1 -0.034846875 0.000116666666667 -0.001771875 0.168909
94 1 -0.034846875 0.000116666666667 -0.000590625 0.198764
95 1 -0.034846875 0.000116666666667 0.000590625 0.181135
96 1 -0.034846875 0.000116666666667 0.001771875 0.202699
97 1 -0.034846875 0.000116666666667 0.002953125 0.184653
98 1 -0.034846875 0.000116666666667 0.004134375 0.194675
99 1 -0.034846875 0.000116666666667 0.005315625 0.175461
100 1 -0.034846875 0.000116666666667 0.006496875 0.176915
101 1 -0.034846875 0.000116666666667 0.007678125 0.151632
102 1 -0.034846875 0.000116666666667 0.008859375 0.147893
103 1 -0.034846875 0.000116666666667 0.010040625 0.119115
104 1 -0.034846875 0.000116666666667 0.011221875 0.117272
105 1 -0.033665625 -0.00261666666667 -0.013584375 0.189212
106 1 -0.033665625 -0.00261666666667 -0.012403125 0.298566
107 1 -0.033665625 -0.00261666666667 -0.011221875 0.231565
108 1 -0.033665625 -0.00261666666667 -0.010040625 0.327244
109 1 -0.033665625 -0.00261666666667 -0.008859375 0.261774
110 1 -0.033665625 -0.00261666666667 -0.007678125 0.344384
111 1 -0.033665625 -0.00261666666667 -0.006496875 0.283612
112 1 -0.033665625 -0.00261666666667 -0.005315625 0.358414
113 1 -0.033665625 -0.00261666666667 -0.004134375 0.302303
114 1 -0.033665625 -0.00261666666667 -0.002953125 0.372239
115 1 -0.033665625 -0.00261666666667 -0.001771875 0.322802
116 1 -0.033665625 -0.00261666666667 -0.000590625 0.38824
117 1 -0.033665625 -0.00261666666667 0.000590625 0.3395
118 1 -0.033665625 -0.00261666666667 0.001771875 0.397322
119 1 -0.033665625 -0.00261666666667 0.002953125 0.34517
120 1 -0.033665625 -0.00261666666667 0.004134375 0.39302
121 1 -0.033665625 -0.00261666666667 0.005315625 0.328998
122 1 -0.033665625 -0.00261666666667 0.006496875 0.36708
123 1 -0.033665625 -0.00261666666667 0.007678125 0.289126
124 1 -0.033665625 -0.00261666666667 0.008859375 0.320929
125 1 -0.033665625 -0.00261666666667 0.010040625 0.227161
126 1 -0.033665625 -0.00261666666667 0.011221875 0.257038
127 1 -0.033665625 -0.00261666666667 0.012403125 0.157691
128 1 -0.033665625 -0.00261666666667 0.013584375 0.190007
129 1 -0.033665625 -0.00125 -0.013584375 0.189212
130 1 -0.033665625 -0.00125 -0.012403125 0.298566
131 1 -0.033665625 -0.00125 -0.011221875 0.231565
132 1 -0.033665625 -0.00125 -0.010040625 0.327244
133 1 -0.033665625 -0.00125 -0.008859375 0.261774
134 1 -0.033665625 -0.00125 -0.007678125 0.344384
135 1 -0.033665625 -0.00125 -0.006496875 0.283612
136 1 -0.033665625 -0.00125 -0.005315625 0.358414
137 1 -0.033665625 -0.00125 -0.004134375 0.302303
138 1 -0.033665625 -0.00125 -0.002953125 0.372239
139 1 -0.033665625 -0.00125 -0.001771875 0.322802
140 1 -0.033665625 -0.00125 -0.000590625 0.38824
141 1 -0.033665625 -0.00125 0.000590625 0.3395
142 1 -0.033665625 -0.00125 0.001771875 0.397322
143 1 -0.033665625 -0.00125 0.002953125 0.34517
144 1 -0.033665625 -0.00125 0.004134375 0.39302
145 1 -0.033665625 -0.00125 0.005315625 0.328998
146 1 -0.033665625 -0.00125 0.006496875 0.36708
147 1 -0.033665625 -0.00125 0.007678125 0.289126
148 1 -0.033665625 -0.00125 0.008859375 0.320929
149 1 -0.033665625 -0.00125 0.010040625 0.227161
150 1 -0.033665625 -0.00125 0.011221875 0.257038
151 1 -0.033665625 -0.00125 0.012403125 0.157691
152 1 -0.033665625 -0.00125 0.013584375 0.190007
153 1 -0.033665625 0.000116666666667 -0.013584375 0.189212
154 1 -0.033665625 0.000116666666667 -0.012403125 0.298566
155 1 -0.033665625 0.000116666666667 -0.011221875 0.231565
156 1 -0.033665625 0.000116666666667 -0.010040625 0.327244
157 1 -0.033665625 0.000116666666667 -0.008859375 0.261774
158 1 -0.033665625 0.000116666666667 -0.007678125 0.344384
159 1 -0.033665625 0.000116666666667 -0.006496875 0.283612
160 1 -0.033665625 0.000116666666667 -0.005315625 0.358414
161 1 -0.033665625 0.000116666666667 -0.004134375 0.302303
162 1 -0.033665625 0.000116666666667 -0.002953125 0.372239
163 1 -0.033665625 0.000116666666667 -0.001771875 0.322802
164 1 -0.033665625 0.000116666666667 -0.000590625 0.38824
165 1 -0.033665625 0.000116666666667 0.000590625 0.3395
166 1 -0.033665625 0.000116666666667 0.001771875 0.397322
167 1 -0.033665625 0.000116666666667 0.002953125 0.34517
168 1 -0.033665625 0.000116666666667 0.004134375 0.39302
169 1 -0.033665625 0.000116666666667 0.005315625 0.328998
170 1 -0.033665625 0.000116666666667 0.006496875 0.36708
171 1 -0.033665625 0.000116666666667 0.007678125 0.289126
172 1 -0.033665625 0.000116666666667 0.008859375 0.320929
173 1 -0.033665625 0.000116666666667 0.010040625 0.227161
174 1 -0.033665625 0.000116666666667 0.011221875 0.257038
175 1 -0.033665625 0.000116666666667 0.012403125 0.157691
176 1 -0.033665625 0.000116666666667 0.013584375 0.190007
177 1 -0.032484375 -0.00261666666667 -0.018309375 0.15408
178 1 -0.032484375 -0.00261666666667 -0.017128125 0.206235
179 1 -0.032484375 -0.00261666666667 -0.015946875 0.236372
180 1 -0.032484375 -0.00261666666667 -0.014765625 0.26424
181 1 -0.032484375 -0.00261666666667 -0.013584375 0.312761
182 1 -0.032484375 -0.00261666666667 -0.012403125 0.311824
183 1 -0.032484375 -0.00261666666667 -0.011221875 0.372653
184 1 -0.032484375 -0.00261666666667 -0.010040625 0.338298
185 1 -0.032484375 -0.00261666666667 -0.008859375 0.409048
186 1 -0.032484375 -0.00261666666667 -0.007678125 0.353031
187 1 -0.032484375 -0.00261666666667 -0.006496875 0.43149
188 1 -0.032484375 -0.00261666666667 -0.005315625 0.361724
189 1 -0.032484375 -0.00261666666667 -0.004134375 0.447362
190 1 -0.032484375 -0.00261666666667 -0.002953125 0.370202
191 1 -0.032484375 -0.00261666666667 -0.001771875 0.465691
192 1 -0.032484375 -0.00261666666667 -0.000590625 0.380427
193 1 -0.032484375 -0.00261666666667 0.000590625 0.485934
194 1 -0.032484375 -0.00261666666667 0.001771875 0.387352
195 1 -0.032484375 -0.00261666666667 0.002953125 0.498332
196 1 -0.032484375 -0.00261666666667 0.004134375 0.380298
197 1 -0.032484375 -0.00261666666667 0.005315625 0.500004
198 1 -0.032484375 -0.00261666666667 0.006496875 0.358822
199 1 -0.032484375 -0.00261666666667 0.007678125 0.466574
200 1 -0.032484375 -0.00261666666667 0.008859375 0.309615
201 1 -0.032484375 -0.00261666666667 0.010040625 0.389064
202 1 -0.032484375 -0.00261666666667 0.011221875 0.240013
203 1 -0.032484375 -0.00261666666667 0.012403125 0.28083
204 1 -0.032484375 -0.00261666666667 0.013584375 0.163663
205 1 -0.032484375 -0.00261666666667 0.014765625 0.171189
206 1 -0.032484375 -0.00261666666667 0.015946875 0.103005
207 1 -0.032484375 -0.00261666666667 0.017128125 0.092572
208 1 -0.032484375 -0.00261666666667 0.018309375 0.0642507
209 1 -0.032484375 -0.00125 -0.018309375 0.15408
210 1 -0.032484375 -0.00125 -0.017128125 0.206235
211 1 -0.032484375 -0.00125 -0.015946875 0.236372
212 1 -0.032484375 -0.00125 -0.014765625 0.26424
213 1 -0.032484375 -0.00125 -0.013584375 0.312761
214 1 -0.032484375 -0.00125 -0.012403125 0.311824
215 1 -0.032484375 -0.00125 -0.011221875 0.372653
216 1 -0.032484375 -0.00125 -0.010040625 0.338298
217 1 -0.032484375 -0.00125 -0.008859375 0.409048
218 1 -0.032484375 -0.00125 -0.007678125 0.353031
219 1 -0.032484375 -0.00125 -0.006496875 0.43149
220 1 -0.032484375 -0.00125 -0.005315625 0.361724
221 1 -0.032484375 -0.00125 -0.004134375 0.447362
222 1 -0.032484375 -0.00125 -0.002953125 0.370202
223 1 -0.032484375 -0.00125 -0.001771875 0.465691
224 1 -0.032484375 -0.00125 -0.000590625 0.380427
225 1 -0.032484375 -0.00125 0.000590625 0.485934
226 1 -0.032484375 -0.00125 0.001771875 0.387352
227 1 -0.032484375 -0.00125 0.002953125 0.498332
228 1 -0.032484375 -0.00125 0.004134375 0.380298
229 1 -0.032484375 -0.00125 0.005315625 0.500004
230 1 -0.032484375 -0.00125 0.006496875 0.358822
231 1 -0.032484375 -0.00125 0.007678125 0.466574
232 1 -0.032484375 -0.00125 0.008859375 0.309615
233 1 -0.032484375 -0.00125 0.010040625 0.389064
234 1 -0.032484375 -0.00125 0.011221875 0.240013
235 1 -0.032484375 -0.00125 0.012403125 0.28083
236 1 -0.032484375 -0.00125 0.013584375 0.163663
237 1 -0.032484375 -0.00125 0.014765625 0.171189
238 1 -0.032484375 -0.00125 0.015946875 0.103005
239 1 -0.032484375 -0.00125 0.017128125 0.092572
240 1 -0.032484375 -0.00125 0.018309375 0.0642507
241 1 -0.032484375 0.000116666666667 -0.018309375 0.15408
242 1 -0.032484375 0.000116666666667 -0.017128125 0.206235
243 1 -0.032484375 0.000116666666667 -0.015946875 0.236372
244 1 -0.032484375 0.000116666666667 -0.014765625 0.26424
245 1 -0.032484375 0.000116666666667 -0.013584375 0.312761
246 1 -0.032484375 0.000116666666667 -0.012403125 0.311824
247 1 -0.032484375 0.000116666666667 -0.011221875 0.372653
248 1 -0.032484375 0.000116666666667 -0.010040625 0.338298
249 1 -0.032484375 0.000116666666667 -0.008859375 0.409048
250 1 -0.032484375 0.000116666666667 -0.007678125 0.353031
251 1 -0.032484375 0.000116666666667 -0.006496875 0.43149
252 1 -0.032484375 0.000116666666667 -0.005315625 0.361724
253 1 -0.032484375 0.000116666666667 -0.004134375 0.447362
254 1 -0.032484375 0.000116666666667 -0.002953125 0.370202
255 1 -0.032484375 0.000116666666667 -0.001771875 0.465691
256 1 -0.032484375 0.000116666666667 -0.000590625 0.380427
257 1 -0.032484375 0.000116666666667 0.000590625 0.485934
258 1 -0.032484375 0.000116666666667 0.001771875 0.387352
259 1 -0.032484375 0.000116666666667 0.002953125 0.498332
260 1 -0.032484375 0.000116666666667 0.004134375 0.380298
261 1 -0.032484375 0.000116666666667 0.005315625 0.500004
262 1 -0.032484375 0.000116666666667 0.006496875 0.358822
263 1 -0.032484375 0.000116666666667 0.007678125 0.466574
264 1 -0.032484375 0.000116666666667 0.008859375 0.309615
265 1 -0.032484375 0.000116666666667 0.010040625 0.389064
266 1 -0.032484375 0.000116666666667 0.011221875 0.240013
267 1 -0.032484375 0.000116666666667 0.012403125 0.28083
268 1 -0.032484375 0.000116666666667 0.013584375 0.163663
269 1 -0.032484375 0.000116666666667 0.014765625 0.171189
270 1 -0.032484375 0.000116666666667 0.015946875 0.103005
271 1 -0.032484375 0.000116666666667 0.017128125 0.092572
272 1 -0.032484375 0.000116666666667 0.018309375 0.0642507
273 1 -0.031303125 -0.00261666666667 -0.019490625 0.29497
274 1 -0.031303125 -0.00261666666667 -0.018309375 0.287279
275 1 -0.031303125 -0.00261666666667 -0.017128125 0.388359
276 1 -0.031303125 -0.00261666666667 -0.015946875 0.408098
277 1 -0.031303125 -0.00261666666667 -0.014765625 0.464135
278 1 -0.031303125 -0.00261666666667 -0.013584375 0.497163
279 1 -0.031303125 -0.00261666666667 -0.012403125 0.509539
280 1 -0.031303125 -0.00261666666667 -0.011221875 0.55068
281 1 -0.031303125 -0.00261666666667 -0.010040625 0.53462
282 1 -0.031303125 -0.00261666666667 -0.008859375 0.57827
283 1 -0.031303125 -0.00261666666667 -0.007678125 0.542434
284 1 -0.031303125 -0.00261666666667 -0.006496875 0.587523
285 1 -0.031303125 -0.00261666666667 -0.005315625 0.546111
286 1 -0.031303125 -0.00261666666667 -0.004134375 0.589629
287 1 -0.031303125 -0.00261666666667 -0.002953125 0.549246
288 1 -0.031303125 -0.00261666666667 -0.001771875 0.595707
289 1 -0.031303125 -0.00261666666667 -0.000590625 0.558479
290 1 -0.031303125 -0.00261666666667 0.000590625 0.605356
291 1 -0.031303125 -0.00261666666667 0.001771875 0.567723
292 1 -0.031303125 -0.00261666666667 0.002953125 0.617936
293 1 -0.031303125 -0.00261666666667 0.004134375 0.573729
294 1 -0.031303125 -0.00261666666667 0.005315625 0.625358
295 1 -0.031303125 -0.00261666666667 0.006496875 0.570018
296 1 -0.031303125 -0.00261666666667 0.007678125 0.612472
297 1 -0.031303125 -0.00261666666667 0.008859375 0.541184
298 1 -0.031303125 -0.00261666666667 0.010040625 0.557008
299 1 -0.031303125 -0.00261666666667 0.011221875 0.472698
300 1 -0.031303125 -0.00261666666667 0.012403125 0.450515
301 1 -0.031303125 -0.00261666666667 0.013584375 0.373374
302 1 -0.031303125 -0.00261666666667 0.014765625 0.308459
303 1 -0.031303125 -0.00261666666667 0.015946875 0.259654
304 1 -0.031303125 -0.00261666666667 0.017128125 0.180863
305 1 -0.031303125 -0.00261666666667 0.018309375 0.169526
306 1 -0.031303125 -0.00261666666667 0.019490625 0.0991705
307 1 -0.031303125 -0.00125 -0.019490625 0.29497
308 1 -0.031303125 -0.00125 -0.018309375 0.287279
309 1 -0.031303125 -0.00125 -0.017128125 0.388359
310 1 -0.031303125 -0.00125 -0.015946875 0.408098
311 1 -0.031303125 -0.00125 -0.014765625 0.464135
312 1 -0.031303125 -0.00125 -0.013584375 0.497163
313 1 -0.031303125 -0.00125 -0.012403125 0.509539
314 1 -0.031303125 -0.00125 -0.011221875 0.55068
315 1 -0.031303125 -0.00125 -0.010040625 0.53462
316 1 -0.031303125 -0.00125 -0.008859375 0.57827
317 1 -0.031303125 -0.00125 -0.007678125 0.542434
318 1 -0.031303125 -0.00125 -0.006496875 0.587523
319 1 -0.031303125 -0.00125 -0.005315625 0.546111
320 1 -0.031303125 -0.00125 -0.004134375 0.589629
321 1 -0.031303125 -0.00125 -0.002953125 0.549246
322 1 -0.031303125 -0.00125 -0.001771875 0.595707
323 1 -0.031303125 -0.00125 -0.000590625 0.558479
324 1 -0.031303125 -0.00125 0.000590625 0.605356
325 1 -0.031303125 -0.00125 0.001771875 0.567723
326 1 -0.031303125 -0.00125 0.002953125 0.617936
327 1 -0.031303125 -0.00125 0.004134375 0.573729
328 1 -0.031303125 -0.00125 0.005315625 0.625358
329 1 -0.031303125 -0.00125 0.006496875 0.570018
330 1 -0.031303125 -0.00125 0.007678125 0.612472
331 1 -0.031303125 -0.00125 0.008859375 0.541184
332 1 -0.031303125 -0.00125 0.010040625 0.557008
333 1 -0.031303125 -0.00125 0.011221875 0.472698
334 1 -0.031303125 -0.00125 0.012403125 0.450515
335 1 -0.031303125 -0.00125 0.013584375 0.373374
336 1 -0.031303125 -0.00125 0.014765625 0.308459
337 1 -0.031303125 -0.00125 0.015946875 0.259654
338 1 -0.031303125 -0.00125 0.017128125 0.180863
339 1 -0.031303125 -0.00125 0.018309375 0.169526
340 1 -0.031303125 -0.00125 0.019490625 0.0991705
341 1 -0.031303125 0.000116666666667 -0.019490625 0.29497
342 1 -0.031303125 0.000116666666667 -0.018309375 0.287279
343 1 -0.031303125 0.000116666666667 -0.017128125 0.388359
344 1 -0.031303125 0.000116666666667 -0.015946875 0.408098
345 1 -0.031303125 0.000116666666667 -0.014765625 0.464135
346 1 -0.031303125 0.000116666666667 -0.013584375 0.497163
347 1 -0.031303125 0.000116666666667 -0.012403125 0.509539
348 1 -0.031303125 0.000116666666667 -0.011221875 0.55068
349 1 -0.031303125 0.000116666666667 -0.010040625 0.53462
350 1 -0.031303125 0.000116666666667 -0.008859375 0.57827
351 1 -0.031303125 0.000116666666667 -0.007678125 0.542434
352 1 -0.031303125 0.000116666666667 -0.006496875 0.587523
353 1 -0.031303125 0.000116666666667 -0.005315625 0.546111
354 1 -0.031303125 0.000116666666667 -0.004134375 0.589629
355 1 -0.031303125 0.000116666666667 -0.002953125 0.549246
356 1 -0.031303125 0.000116666666667 -0.001771875 0.595707
357 1 -0.031303125 0.000116666666667 -0.000590625 0.558479
358 1 -0.031303125 0.000116666666667 0.000590625 0.605356
359 1 -0.031303125 0.000116666666667 0.001771875 0.567723
360 1 -0.031303125 0.000116666666667 0.002953125 0.617936
361 1 -0.031303125 0.000116666666667 0.004134375 0.573729
362 1 -0.031303125 0.000116666666667 0.005315625 0.625358
363 1 -0.031303125 0.000116666666667 0.006496875 0.570018
364 1 -0.031303125 0.000116666666667 0.007678125 0.612472
365 1 -0.031303125 0.000116666666667 0.008859375 0.541184
366 1 -0.031303125 0.000116666666667 0.010040625 0.557008
367 1 -0.031303125 0.000116666666667 0.011221875 0.472698
368 1 -0.031303125 0.000116666666667 0.012403125 0.450515
369 1 -0.031303125 0.000116666666667 0.013584375 0.373374
370 1 -0.031303125 0.000116666666667 0.014765625 0.308459
371 1 -0.031303125 0.000116666666667 0.015946875 0.259654
372 1 -0.031303125 0.000116666666667 0.017128125 0.180863
373 1 -0.031303125 0.000116666666667 0.018309375 0.169526
374 1 -0.031303125 0.000116666666667 0.019490625 0.0991705
375 1 -0.030121875 -0.00261666666667 -0.020671875 0.256165
376 1 -0.030121875 -0.00261666666667 -0.019490625 0.316146
377 1 -0.030121875 -0.00261666666667 -0.018309375 0.389273
378 1 -0.030121875 -0.00261666666667 -0.017128125 0.414493
379 1 -0.030121875 -0.00261666666667 -0.015946875 0.494296
380 1 -0.030121875 -0.00261666666667 -0.014765625 0.471459
381 1 -0.030121875 -0.00261666666667 -0.013584375 0.556701
382 1 -0.030121875 -0.00261666666667 -0.012403125 0.507255
383 1 -0.030121875 -0.00261666666667 -0.011221875 0.590948
384 1 -0.030121875 -0.00261666666667 -0.010040625 0.522207
385 1 -0.030121875 -0.00261666666667 -0.008859375 0.602742
386 1 -0.030121875 -0.00261666666667 -0.007678125 0.528168
387 1 -0.030121875 -0.00261666666667 -0.006496875 0.601653
388 1 -0.030121875 -0.00261666666667 -0.005315625 0.528703
389 1 -0.030121875 -0.00261666666667 -0.004134375 0.598904
390 1 -0.030121875 -0.00261666666667 -0.002953125 0.528246
391 1 -0.030121875 -0.00261666666667 -0.001771875 0.603195
392 1 -0.030121875 -0.00261666666667 -0.000590625 0.534122
393 1 -0.030121875 -0.00261666666667 0.000590625 0.617495
394 1 -0.030121875 -0.00261666666667 0.001771875 0.542327
395 1 -0.030121875 -0.00261666666667 0.002953125 0.635973
396 1 -0.030121875 -0.00261666666667 0.004134375 0.543935
397 1 -0.030121875 -0.00261666666667 0.005315625 0.658599
398 1 -0.030121875 -0.00261666666667 0.006496875 0.541415
399 1 -0.030121875 -0.00261666666667 0.007678125 0.663556
400 1 -0.030121875 -0.00261666666667 0.008859375 0.508698
401 1 -0.030121875 -0.00261666666667 0.010040625 0.640429
402 1 -0.030121875 -0.00261666666667 0.011221875 0.451795
403 1 -0.030121875 -0.00261666666667 0.012403125 0.574159
404 1 -0.030121875 -0.00261666666667 0.013584375 0.358575
405 1 -0.030121875 -0.00261666666667 0.014765625 0.437393
406 1 -0.030121875 -0.00261666666667 0.015946875 0.240266
407 1 -0.030121875 -0.00261666666667 0.017128125 0.267822
408 1 -0.030121875 -0.00261666666667 0.018309375 0.146456
409 1 -0.030121875 -0.00261666666667 0.019490625 0.146613
410 1 -0.030121875 -0.00261666666667 0.020671875 0.0918763
411 1 -0.030121875 -0.00125 -0.020671875 0.256165
412 1 -0.030121875 -0.00125 -0.019490625 0.316146
413 1 -0.030121875 -0.00125 -0.018309375 0.389273
414 1 -0.030121875 -0.00125 -0.017128125 0.414493
415 1 -0.030121875 -0.00125 -0.015946875 0.494296
416 1 -0.030121875 -0.00125 -0.014765625 0.471459
417 1 -0.030121875 -0.00125 -0.013584375 0.556701
418 1 -0.030121875 -0.00125 -0.012403125 0.507255
419 1 -0.030121875 -0.00125 -0.011221875 0.590948
420 1 -0.030121875 -0.00125 -0.010040625 0.522207
421 1 -0.030121875 -0.00125 -0.008859375 0.602742
422 1 -0.030121875 -0.00125 -0.007678125 0.528168
423 1 -0.030121875 -0.00125 -0.006496875 0.601653
424 1 -0.030121875 -0.00125 -0.005315625 0.528703
425 1 -0.030121875 -0.00125 -0.004134375 0.598904
426 1 -0.030121875 -0.00125 -0.002953125 0.528246
427 1 -0.030121875 -0.00125 -0.001771875 0.603195
428 1 -0.030121875 -0.00125 -0.000590625 0.534122
429 1 -0.030121875 -0.00125 0.000590625 0.617495
430 1 -0.030121875 -0.00125 0.001771875 0.542327
431 1 -0.030121875 -0.00125 0.002953125 0.635973
432 1 -0.030121875 -0.00125 0.004134375 0.543935
433 1 -0.030121875 -0.00125 0.005315625 0.658599
434 1 -0.030121875 -0.00125 0.006496875 0.541415
435 1 -0.030121875 -0.00125 0.007678125 0.663556
436 1 -0.030121875 -0.00125 0.008859375 0.508698
437 1 -0.030121875 -0.00125 0.010040625 0.640429
438 1 -0.030121875 -0.00125 0.011221875 0.451795
439 1 -0.030121875 -0.00125 0.012403125 0.574159
440 1 -0.030121875 -0.00125 0.013584375 0.358575
441 1 -0.030121875 -0.00125 0.014765625 0.437393
442 1 -0.030121875 -0.00125 0.015946875 0.240266
443 1 -0.030121875 -0.00125 0.017128125 0.267822
444 1 -0.030121875 -0.00125 0.018309375 0.146456
445 1 -0.030121875 -0.00125 0.019490625 0.146613
446 1 -0.030121875 -0.00125 0.020671875 0.0918763
447 1 -0.030121875 0.000116666666667 -0.020671875 0.256165
448 1 -0.030121875 0.000116666666667 -0.019490625 0.316146
449 1 -0.030121875 0.000116666666667 -0.018309375 0.389273
450 1 -0.030121875 0.000116666666667 -0.017128125 0.414493
451 1 -0.030121875 0.000116666666667 -0.015946875 0.494296
452 1 -0.030121875 0.000116666666667 -0.014765625 0.471459
453 1 -0.030121875 0.000116666666667 -0.013584375 0.556701
454 1 -0.030121875 0.000116666666667 -0.012403125 0.507255
455 1 -0.030121875 0.000116666666667 -0.011221875 0.590948
456 1 -0.030121875 0.000116666666667 -0.010040625 0.522207
457 1 -0.030121875 0.000116666666667 -0.008859375 0.602742
458 1 -0.030121875 0.000116666666667 -0.007678125 0.528168
459 1 -0.030121875 0.000116666666667 -0.006496875 0.601653
460 1 -0.030121875 0.000116666666667 -0.005315625 0.528703
461 1 -0.030121875 0.000116666666667 -0.004134375 0.598904
462 1 -0.030121875 0.000116666666667 -0.002953125 0.528246
463 1 -0.030121875 0.000116666666667 -0.001771875 0.603195
464 1 -0.030121875 0.000116666666667 -0.000590625 0.534122
465 1 -0.030121875 0.000116666666667 0.000590625 0.617495
466 1 -0.030121875 0.000116666666667 0.001771875 0.542327
467 1 -0.030121875 0.000116666666667 0.002953125 0.635973
468 1 -0.030121875 0.000116666666667 0.004134375 0.543935
469 1 -0.030121875 0.000116666666667 0.005315625 0.658599
470 1 -0.030121875 0.000116666666667 0.006496875 0.541415
471 1 -0.030121875 0.000116666666667 0.007678125 0.663556
472 1 -0.030121875 0.000116666666667 0.008859375 0.508698
473 1 -0.030121875 0.000116666666667 0.010040625 0.640429
474 1 -0.030121875 0.000116666666667 0.011221875 0.451795
475 1 -0.030121875 0.000116666666667 0.012403125 0.574159
476 1 -0.030121875 0.000116666666667 0.013584375 0.358575
477 1 -0.030121875 0.000116666666667 0.014765625 0.437393
478 1 -0.030121875 0.000116666666667 0.015946875 0.240266
479 1 -0.030121875 0.000116666666667 0.017128125 0.267822
480 1 -0.030121875 0.000116666666667 0.018309375 0.146456
481 1 -0.030121875 0.000116666666667 0.019490625 0.146613
482 1 -0.030121875 0.000116666666667 0.020671875 0.0918763
483 1 -0.028940625 -0.00261666666667 -0.021853125 0.347541
484 1 -0.028940625 -0.00261666666667 -0.020671875 0.364049
485 1 -0.028940625 -0.00261666666667 -0.019490625 0.463769
486 1 -0.028940625 -0.00261666666667 -0.018309375 0.504626
487 1 -0.028940625 -0.00261666666667 -0.017128125 0.533206
488 1 -0.028940625 -0.00261666666667 -0.015946875 0.572094
489 1 -0.028940625 -0.00261666666667 -0.014765625 0.559619
490 1 -0.028940625 -0.00261666666667 -0.013584375 0.591191
491 1 -0.028940625 -0.00261666666667 -0.012403125 0.573818
492 1 -0.028940625 -0.00261666666667 -0.011221875 0.602497
493 1 -0.028940625 -0.00261666666667 -0.010040625 0.580442
494 1 -0.028940625 -0.00261666666667 -0.008859375 0.605541
495 1 -0.028940625 -0.00261666666667 -0.007678125 0.579682
496 1 -0.028940625 -0.00261666666667 -0.006496875 0.605434
497 1 -0.028940625 -0.00261666666667 -0.005315625 0.580055
498 1 -0.028940625 -0.00261666666667 -0.004134375 0.604615
499 1 -0.028940625 -0.00261666666667 -0.002953125 0.581984
500 1 -0.028940625 -0.00261666666667 -0.001771875 0.609658
501 1 -0.028940625 -0.00261666666667 -0.000590625 0.591701
502 1 -0.028940625 -0.00261666666667 0.000590625 0.620389
503 1 -0.028940625 -0.00261666666667 0.001771875 0.60324
504 1 -0.028940625 -0.00261666666667 0.002953125 0.634526
505 1 -0.028940625 -0.00261666666667 0.004134375 0.612915
506 1 -0.028940625 -0.00261666666667 0.005315625 0.6453
507 1 -0.028940625 -0.00261666666667 0.006496875 0.614588
508 1 -0.028940625 -0.00261666666667 0.007678125 0.649677
509 1 -0.028940625 -0.00261666666667 0.008859375 0.603745
510 1 -0.028940625 -0.00261666666667 0.010040625 0.644091
511 1 -0.028940625 -0.00261666666667 0.011221875 0.576277
512 1 -0.028940625 -0.00261666666667 0.012403125 0.622928
513 1 -0.028940625 -0.00261666666667 0.013584375 0.526225
514 1 -0.028940625 -0.00261666666667 0.014765625 0.539327
515 1 -0.028940625 -0.00261666666667 0.015946875 0.422375
516 1 -0.028940625 -0.00261666666667 0.017128125 0.387484
517 1 -0.028940625 -0.00261666666667 0.018309375 0.298914
518 1 -0.028940625 -0.00261666666667 0.019490625 0.239485
519 1 -0.028940625 -0.00261666666667 0.020671875 0.204582
520 1 -0.028940625 -0.00261666666667 0.021853125 0.143509
521 1 -0.028940625 -0.00125 -0.021853125 0.347541
522 1 -0.028940625 -0.00125 -0.020671875 0.364049
523 1 -0.028940625 -0.00125 -0.019490625 0.463769
524 1 -0.028940625 -0.00125 -0.018309375 0.504626
525 1 -0.028940625 -0.00125 -0.017128125 0.533206
526 1 -0.028940625 -0.00125 -0.015946875 0.572094
527 1 -0.028940625 -0.00125 -0.014765625 0.559619
528 1 -0.028940625 -0.00125 -0.013584375 0.591191
529 1 -0.028940625 -0.00125 -0.012403125 0.573818
530 1 -0.028940625 -0.00125 -0.011221875 0.602497
531 1 -0.028940625 -0.00125 -0.010040625 0.580442
532 1 -0.028940625 -0.00125 -0.008859375 0.605541
533 1 -0.028940625 -0.00125 -0.007678125 0.579682
534 1 -0.028940625 -0.00125 -0.006496875 0.605434
535 1 -0.028940625 -0.00125 -0.005315625 0.580055
536 1 -0.028940625 -0.00125 -0.004134375 0.604615
537 1 -0.028940625 -0.00125 -0.002953125 0.581984