ITEM: TIMESTEP
0
ITEM: NUMBER OF ATOMS
9240
ITEM: BOX BOUNDS ss ss ss
-3.7007399999999996e-02 3.7007399999999996e-02
-2.0002499999999999e-03 2.5000000000000004e-07
-3.7007399999999996e-02 3.7007399999999996e-02
ITEM: ATOMS id type x y z c_1
0 1 -0.037209375 -0.00261666666667 -0.000590625 0.577413
1 1 -0.037209375 -0.00125 -0.000590625 0.577413
2 1 -0.037209375 0.000116666666667 -0.000590625 0.577413
3 1 -0.036028125 -0.00261666666667 -0.007678125 0.613139
4 1 -0.036028125 -0.00261666666667 -0.006496875 0.627977
5 1 -0.036028125 -0.00261666666667 -0.005315625 0.612419
6 1 -0.036028125 -0.00261666666667 -0.004134375 0.627026
7 1 -0.036028125 -0.00261666666667 -0.002953125 0.611099
8 1 -0.036028125 -0.00261666666667 -0.001771875 0.626002
9 1 -0.036028125 -0.00261666666667 -0.000590625 0.609688
10 1 -0.036028125 -0.00261666666667 0.000590625 0.624479
11 1 -0.036028125 -0.00261666666667 0.001771875 0.607872
12 1 -0.036028125 -0.00261666666667 0.002953125 0.622469
13 1 -0.036028125 -0.00261666666667 0.004134375 0.605999
14 1 -0.036028125 -0.00261666666667 0.005315625 0.621071
15 1 -0.036028125 -0.00261666666667 0.006496875 0.604593
16 1 -0.036028125 -0.00261666666667 0.007678125 0.619988
17 1 -0.036028125 -0.00125 -0.007678125 0.613139
18 1 -0.036028125 -0.00125 -0.006496875 0.627977
19 1 -0.036028125 -0.00125 -0.005315625 0.612419
20 1 -0.036028125 -0.00125 -0.004134375 0.627026
21 1 -0.036028125 -0.00125 -0.002953125 0.611099
22 1 -0.036028125 -0.00125 -0.001771875 0.626002
23 1 -0.036028125 -0.00125 -0.000590625 0.609688
24 1 -0.036028125 -0.00125 0.000590625 0.624479
25 1 -0.036028125 -0.00125 0.001771875 0.607872
26 1 -0.036028125 -0.00125 0.002953125 0.622469
27 1 -0.036028125 -0.00125 0.004134375 0.605999
28 1 -0.036028125 -0.00125 0.005315625 0.621071
29 1 -0.036028125 -0.00125 0.006496875 0.604593
30 1 -0.036028125 -0.00125 0.007678125 0.619988
31 1 -0.036028125 0.000116666666667 -0.007678125 0.613139
32 1 -0.036028125 0.000116666666667 -0.006496875 0.627977
33 1 -0.036028125 0.000116666666667 -0.005315625 0.612419
34 1 -0.036028125 0.000116666666667 -0.004134375 0.627026
35 1 -0.036028125 0.000116666666667 -0.002953125 0.611099
36 1 -0.036028125 0.000116666666667 -0.001771875 0.626002
37 1 -0.036028125 0.000116666666667 -0.000590625 0.609688
38 1 -0.036028125 0.000116666666667 0.000590625 0.624479
39 1 -0.036028125 0.000116666666667 0.001771875 0.607872
40 1 -0.036028125 0.000116666666667 0.002953125 0.622469
41 1 -0.036028125 0.000116666666667 0.004134375 0.605999
42 1 -0.036028125 0.000116666666667 0.005315625 0.621071
43 1 -0.036028125 0.000116666666667 0.006496875 0.604593
44 1 -0.036028125 0.000116666666667 0.007678125 0.619988
45 1 -0.034846875 -0.00261666666667 -0.011221875 0.634606
46 1 -0.034846875 -0.00261666666667 -0.010040625 0.698806
47 1 -0.034846875 -0.00261666666667 -0.008859375 0.63467
48 1 -0.034846875 -0.00261666666667 -0.007678125 0.698345
49 1 -0.034846875 -0.00261666666667 -0.006496875 0.633835
50 1 -0.034846875 -0.00261666666667 -0.005315625 0.696347
51 1 -0.034846875 -0.00261666666667 -0.004134375 0.633124
52 1 -0.034846875 -0.00261666666667 -0.002953125 0.694069
53 1 -0.034846875 -0.00261666666667 -0.001771875 0.631951
54 1 -0.034846875 -0.00261666666667 -0.000590625 0.691364
55 1 -0.034846875 -0.00261666666667 0.000590625 0.630164
56 1 -0.034846875 -0.00261666666667 0.001771875 0.688485
57 1 -0.034846875 -0.00261666666667 0.002953125 0.628566
58 1 -0.034846875 -0.00261666666667 0.004134375 0.686465
59 1 -0.034846875 -0.00261666666667 0.005315625 0.627341
60 1 -0.034846875 -0.00261666666667 0.006496875 0.684751
61 1 -0.034846875 -0.00261666666667 0.007678125 0.626187
62 1 -0.034846875 -0.00261666666667 0.008859375 0.682938
63 1 -0.034846875 -0.00261666666667 0.010040625 0.624861
64 1 -0.034846875 -0.00261666666667 0.011221875 0.680892
65 1 -0.034846875 -0.00125 -0.011221875 0.634606
66 1 -0.034846875 -0.00125 -0.010040625 0.698806
67 1 -0.034846875 -0.00125 -0.008859375 0.63467
68 1 -0.034846875 -0.00125 -0.007678125 0.698345
69 1 -0.034846875 -0.00125 -0.006496875 0.633835
70 1 -0.034846875 -0.00125 -0.005315625 0.696347
71 1 -0.034846875 -0.00125 -0.004134375 0.633124
72 1 -0.034846875 -0.00125 -0.002953125 0.694069
73 1 -0.034846875 -0.00125 -0.001771875 0.631951
74 1 -0.034846875 -0.00125 -0.000590625 0.691364
75 1 -0.034846875 -0.00125 0.000590625 0.630164
76 1 -0.034846875 -0.00125 0.001771875 0.688485
77 1 -0.034846875 -0.00125 0.002953125 0.628566
78 1 -0.034846875 -0.00125 0.004134375 0.686465
79 1 -0.034846875 -0.00125 0.005315625 0.627341
80 1 -0.034846875 -0.00125 0.006496875 0.684751
81 1 -0.034846875 -0.00125 0.007678125 0.626187
82 1 -0.034846875 -0.00125 0.008859375 0.682938
83 1 -0.034846875 -0.00125 0.010040625 0.624861
84 1 -0.034846875 -0.00125 0.011221875 0.680892
85 1 -0.034846875 0.000116666666667 -0.011221875 0.634606
86 1 -0.034846875 0.000116666666667 -0.010040625 0.698806
87 1 -0.034846875 0.000116666666667 -0.008859375 0.63467
88 1 -0.034846875 0.000116666666667 -0.007678125 0.698345
89 1 -0.034846875 0.000116666666667 -0.006496875 0.633835
90 1 -0.034846875 0.000116666666667 -0.005315625 0.696347
91 1 -0.034846875 0.000116666666667 -0.004134375 0.633124
92 1 -0.034846875 0.000116666666667 -0.002953125 0.694069
93 1 -0.034846875 0.000116666666667 -0.001771875 0.631951
94 1 -0.034846875 0.000116666666667 -0.000590625 0.691364
95 1 -0.034846875 0.000116666666667 0.000590625 0.630164
96 1 -0.034846875 0.000116666666667 0.001771875 0.688485
97 1 -0.034846875 0.000116666666667 0.002953125 0.628566
98 1 -0.034846875 0.000116666666667 0.004134375 0.686465
99 1 -0.034846875 0.000116666666667 0.005315625 0.627341
100 1 -0.034846875 0.000116666666667 0.006496875 0.684751
101 1 -0.034846875 0.000116666666667 0.007678125 0.626187
102 1 -0.034846875 0.000116666666667 0.008859375 0.682938
103 1 -0.034846875 0.000116666666667 0.010040625 0.624861
104 1 -0.034846875 0.000116666666667 0.011221875 0.680892
105 1 -0.033665625 -0.00261666666667 -0.013584375 0.672988
106 1 -0.033665625 -0.00261666666667 -0.012403125 0.629278
107 1 -0.033665625 -0.00261666666667 -0.011221875 0.673405
108 1 -0.033665625 -0.00261666666667 -0.010040625 0.62989
109 1 -0.033665625 -0.00261666666667 -0.008859375 0.673255
110 1 -0.033665625 -0.00261666666667 -0.007678125 0.629485
111 1 -0.033665625 -0.00261666666667 -0.006496875 0.672782
112 1 -0.033665625 -0.00261666666667 -0.005315625 0.628493
113 1 -0.033665625 -0.00261666666667 -0.004134375 0.671374
114 1 -0.033665625 -0.00261666666667 -0.002953125 0.626701
115 1 -0.033665625 -0.00261666666667 -0.001771875 0.669474
116 1 -0.033665625 -0.00261666666667 -0.000590625 0.624761
117 1 -0.033665625 -0.00261666666667 0.000590625 0.667013
118 1 -0.033665625 -0.00261666666667 0.001771875 0.622384
119 1 -0.033665625 -0.00261666666667 0.002953125 0.664044
120 1 -0.033665625 -0.00261666666667 0.004134375 0.620145
121 1 -0.033665625 -0.00261666666667 0.005315625 0.661881
122 1 -0.033665625 -0.00261666666667 0.006496875 0.618532
123 1 -0.033665625 -0.00261666666667 0.007678125 0.660088
124 1 -0.033665625 -0.00261666666667 0.008859375 0.617059
125 1 -0.033665625 -0.00261666666667 0.010040625 0.658067
126 1 -0.033665625 -0.00261666666667 0.011221875 0.615326
127 1 -0.033665625 -0.00261666666667 0.012403125 0.655781
128 1 -0.033665625 -0.00261666666667 0.013584375 0.613247
129 1 -0.033665625 -0.00125 -0.013584375 0.672988
130 1 -0.033665625 -0.00125 -0.012403125 0.629278
131 1 -0.033665625 -0.00125 -0.011221875 0.673405
132 1 -0.033665625 -0.00125 -0.010040625 0.62989
133 1 -0.033665625 -0.00125 -0.008859375 0.673255
134 1 -0.033665625 -0.00125 -0.007678125 0.629485
135 1 -0.033665625 -0.00125 -0.006496875 0.672782
136 1 -0.033665625 -0.00125 -0.005315625 0.628493
137 1 -0.033665625 -0.00125 -0.004134375 0.671374
138 1 -0.033665625 -0.00125 -0.002953125 0.626701
139 1 -0.033665625 -0.00125 -0.001771875 0.669474
140 1 -0.033665625 -0.00125 -0.000590625 0.624761
141 1 -0.033665625 -0.00125 0.000590625 0.667013
142 1 -0.033665625 -0.00125 0.001771875 0.622384
143 1 -0.033665625 -0.00125 0.002953125 0.664044
144 1 -0.033665625 -0.00125 0.004134375 0.620145
145 1 -0.033665625 -0.00125 0.005315625 0.661881
146 1 -0.033665625 -0.00125 0.006496875 0.618532
147 1 -0.033665625 -0.00125 0.007678125 0.660088
148 1 -0.033665625 -0.00125 0.008859375 0.617059
149 1 -0.033665625 -0.00125 0.010040625 0.658067
150 1 -0.033665625 -0.00125 0.011221875 0.615326
151 1 -0.033665625 -0.00125 0.012403125 0.655781
152 1 -0.033665625 -0.00125 0.013584375 0.613247
153 1 -0.033665625 0.000116666666667 -0.013584375 0.672988
154 1 -0.033665625 0.000116666666667 -0.012403125 0.629278
155 1 -0.033665625 0.000116666666667 -0.011221875 0.673405
156 1 -0.033665625 0.000116666666667 -0.010040625 0.62989
157 1 -0.033665625 0.000116666666667 -0.008859375 0.673255
158 1 -0.033665625 0.000116666666667 -0.007678125 0.629485
159 1 -0.033665625 0.000116666666667 -0.006496875 0.672782
160 1 -0.033665625 0.000116666666667 -0.005315625 0.628493
161 1 -0.033665625 0.000116666666667 -0.004134375 0.671374
162 1 -0.033665625 0.000116666666667 -0.002953125 0.626701
163 1 -0.033665625 0.000116666666667 -0.001771875 0.669474
164 1 -0.033665625 0.000116666666667 -0.000590625 0.624761
165 1 -0.033665625 0.000116666666667 0.000590625 0.667013
166 1 -0.033665625 0.000116666666667 0.001771875 0.622384
167 1 -0.033665625 0.000116666666667 0.002953125 0.664044
168 1 -0.033665625 0.000116666666667 0.004134375 0.620145
169 1 -0.033665625 0.000116666666667 0.005315625 0.661881
170 1 -0.033665625 0.000116666666667 0.006496875 0.618532
171 1 -0.033665625 0.000116666666667 0.007678125 0.660088
172 1 -0.033665625 0.000116666666667 0.008859375 0.617059
173 1 -0.033665625 0.000116666666667 0.010040625 0.658067
174 1 -0.033665625 0.000116666666667 0.011221875 0.615326
175 1 -0.033665625 0.000116666666667 0.012403125 0.655781
176 1 -0.033665625 0.000116666666667 0.013584375 0.613247
177 1 -0.032484375 -0.00261666666667 -0.018309375 0.657592
178 1 -0.032484375 -0.00261666666667 -0.017128125 0.73
179 1 -0.032484375 -0.00261666666667 -0.015946875 0.658104
180 1 -0.032484375 -0.00261666666667 -0.014765625 0.731635
181 1 -0.032484375 -0.00261666666667 -0.013584375 0.65857
182 1 -0.032484375 -0.00261666666667 -0.012403125 0.732759
183 1 -0.032484375 -0.00261666666667 -0.011221875 0.658539
184 1 -0.032484375 -0.00261666666667 -0.010040625 0.732605
185 1 -0.032484375 -0.00261666666667 -0.008859375 0.6583
186 1 -0.032484375 -0.00261666666667 -0.007678125 0.731925
187 1 -0.032484375 -0.00261666666667 -0.006496875 0.657062
188 1 -0.032484375 -0.00261666666667 -0.005315625 0.729431
189 1 -0.032484375 -0.00261666666667 -0.004134375 0.655849
190 1 -0.032484375 -0.00261666666667 -0.002953125 0.726377
191 1 -0.032484375 -0.00261666666667 -0.001771875 0.654101
192 1 -0.032484375 -0.00261666666667 -0.000590625 0.722731
193 1 -0.032484375 -0.00261666666667 0.000590625 0.651749
194 1 -0.032484375 -0.00261666666667 0.001771875 0.718851
195 1 -0.032484375 -0.00261666666667 0.002953125 0.649576
196 1 -0.032484375 -0.00261666666667 0.004134375 0.716018
197 1 -0.032484375 -0.00261666666667 0.005315625 0.647737
198 1 -0.032484375 -0.00261666666667 0.006496875 0.713746
199 1 -0.032484375 -0.00261666666667 0.007678125 0.646048
200 1 -0.032484375 -0.00261666666667 0.008859375 0.711368
201 1 -0.032484375 -0.00261666666667 0.010040625 0.644355
202 1 -0.032484375 -0.00261666666667 0.011221875 0.708918
203 1 -0.032484375 -0.00261666666667 0.012403125 0.642164
204 1 -0.032484375 -0.00261666666667 0.013584375 0.705753
205 1 -0.032484375 -0.00261666666667 0.014765625 0.639344
206 1 -0.032484375 -0.00261666666667 0.015946875 0.701621
207 1 -0.032484375 -0.00261666666667 0.017128125 0.635166
208 1 -0.032484375 -0.00261666666667 0.018309375 0.695393
209 1 -0.032484375 -0.00125 -0.018309375 0.657592
210 1 -0.032484375 -0.00125 -0.017128125 0.73
211 1 -0.032484375 -0.00125 -0.015946875 0.658104
212 1 -0.032484375 -0.00125 -0.014765625 0.731635
213 1 -0.032484375 -0.00125 -0.013584375 0.65857
214 1 -0.032484375 -0.00125 -0.012403125 0.732759
215 1 -0.032484375 -0.00125 -0.011221875 0.658539
216 1 -0.032484375 -0.00125 -0.010040625 0.732605
217 1 -0.032484375 -0.00125 -0.008859375 0.6583
218 1 -0.032484375 -0.00125 -0.007678125 0.731925
219 1 -0.032484375 -0.00125 -0.006496875 0.657062
220 1 -0.032484375 -0.00125 -0.005315625 0.729431
221 1 -0.032484375 -0.00125 -0.004134375 0.655849
222 1 -0.032484375 -0.00125 -0.002953125 0.726377
223 1 -0.032484375 -0.00125 -0.001771875 0.654101
224 1 -0.032484375 -0.00125 -0.000590625 0.722731
225 1 -0.032484375 -0.00125 0.000590625 0.651749
226 1 -0.032484375 -0.00125 0.001771875 0.718851
227 1 -0.032484375 -0.00125 0.002953125 0.649576
228 1 -0.032484375 -0.00125 0.004134375 0.716018
229 1 -0.032484375 -0.00125 0.005315625 0.647737
230 1 -0.032484375 -0.00125 0.006496875 0.713746
231 1 -0.032484375 -0.00125 0.007678125 0.646048
232 1 -0.032484375 -0.00125 0.008859375 0.711368
233 1 -0.032484375 -0.00125 0.010040625 0.644355
234 1 -0.032484375 -0.00125 0.011221875 0.708918
235 1 -0.032484375 -0.00125 0.012403125 0.642164
236 1 -0.032484375 -0.00125 0.013584375 0.705753
237 1 -0.032484375 -0.00125 0.014765625 0.639344
238 1 -0.032484375 -0.00125 0.015946875 0.701621
239 1 -0.032484375 -0.00125 0.017128125 0.635166
240 1 -0.032484375 -0.00125 0.018309375 0.695393
241 1 -0.032484375 0.000116666666667 -0.018309375 0.657592
242 1 -0.032484375 0.000116666666667 -0.017128125 0.73
243 1 -0.032484375 0.000116666666667 -0.015946875 0.658104
244 1 -0.032484375 0.000116666666667 -0.014765625 0.731635
245 1 -0.032484375 0.000116666666667 -0.013584375 0.65857
246 1 -0.032484375 0.000116666666667 -0.012403125 0.732759
247 1 -0.032484375 0.000116666666667 -0.011221875 0.658539
248 1 -0.032484375 0.000116666666667 -0.010040625 0.732605
249 1 -0.032484375 0.000116666666667 -0.008859375 0.6583
250 1 -0.032484375 0.000116666666667 -0.007678125 0.731925
251 1 -0.032484375 0.000116666666667 -0.006496875 0.657062
252 1 -0.032484375 0.000116666666667 -0.005315625 0.729431
253 1 -0.032484375 0.000116666666667 -0.004134375 0.655849
254 1 -0.032484375 0.000116666666667 -0.002953125 0.726377
255 1 -0.032484375 0.000116666666667 -0.001771875 0.654101
256 1 -0.032484375 0.000116666666667 -0.000590625 0.722731
257 1 -0.032484375 0.000116666666667 0.000590625 0.651749
258 1 -0.032484375 0.000116666666667 0.001771875 0.718851
259 1 -0.032484375 0.000116666666667 0.002953125 0.649576
260 1 -0.032484375 0.000116666666667 0.004134375 0.716018
261 1 -0.032484375 0.000116666666667 0.005315625 0.647737
262 1 -0.032484375 0.000116666666667 0.006496875 0.713746
263 1 -0.032484375 0.000116666666667 0.007678125 0.646048
264 1 -0.032484375 0.000116666666667 0.008859375 0.711368
265 1 -0.032484375 0.000116666666667 0.010040625 0.644355
266 1 -0.032484375 0.000116666666667 0.011221875 0.708918
267 1 -0.032484375 0.000116666666667 0.012403125 0.642164
268 1 -0.032484375 0.000116666666667 0.013584375 0.705753
269 1 -0.032484375 0.000116666666667 0.014765625 0.639344
270 1 -0.032484375 0.000116666666667 0.015946875 0.701621
271 1 -0.032484375 0.000116666666667 0.017128125 0.635166
272 1 -0.032484375 0.000116666666667 0.018309375 0.695393
273 1 -0.031303125 -0.00261666666667 -0.019490625 0.6443
274 1 -0.031303125 -0.00261666666667 -0.018309375 0.696415
275 1 -0.031303125 -0.00261666666667 -0.017128125 0.644943
276 1 -0.031303125 -0.00261666666667 -0.015946875 0.697292
277 1 -0.031303125 -0.00261666666667 -0.014765625 0.645682
278 1 -0.031303125 -0.00261666666667 -0.013584375 0.698135
279 1 -0.031303125 -0.00261666666667 -0.012403125 0.646557
280 1 -0.031303125 -0.00261666666667 -0.011221875 0.698649
281 1 -0.031303125 -0.00261666666667 -0.010040625 0.646982
282 1 -0.031303125 -0.00261666666667 -0.008859375 0.698252
283 1 -0.031303125 -0.00261666666667 -0.007678125 0.646196
284 1 -0.031303125 -0.00261666666667 -0.006496875 0.69732
285 1 -0.031303125 -0.00261666666667 -0.005315625 0.644759
286 1 -0.031303125 -0.00261666666667 -0.004134375 0.695286
287 1 -0.031303125 -0.00261666666667 -0.002953125 0.642377
288 1 -0.031303125 -0.00261666666667 -0.001771875 0.692623
289 1 -0.031303125 -0.00261666666667 -0.000590625 0.639788
290 1 -0.031303125 -0.00261666666667 0.000590625 0.689452
291 1 -0.031303125 -0.00261666666667 0.001771875 0.636589
292 1 -0.031303125 -0.00261666666667 0.002953125 0.685749
293 1 -0.031303125 -0.00261666666667 0.004134375 0.633884
294 1 -0.031303125 -0.00261666666667 0.005315625 0.682711
295 1 -0.031303125 -0.00261666666667 0.006496875 0.632045
296 1 -0.031303125 -0.00261666666667 0.007678125 0.68031
297 1 -0.031303125 -0.00261666666667 0.008859375 0.63024
298 1 -0.031303125 -0.00261666666667 0.010040625 0.677967
299 1 -0.031303125 -0.00261666666667 0.011221875 0.628164
300 1 -0.031303125 -0.00261666666667 0.012403125 0.675363
301 1 -0.031303125 -0.00261666666667 0.013584375 0.625709
302 1 -0.031303125 -0.00261666666667 0.014765625 0.671787
303 1 -0.031303125 -0.00261666666667 0.015946875 0.622398
304 1 -0.031303125 -0.00261666666667 0.017128125 0.667215
305 1 -0.031303125 -0.00261666666667 0.018309375 0.618608
306 1 -0.031303125 -0.00261666666667 0.019490625 0.660772
307 1 -0.031303125 -0.00125 -0.019490625 0.6443
308 1 -0.031303125 -0.00125 -0.018309375 0.696415
309 1 -0.031303125 -0.00125 -0.017128125 0.644943
310 1 -0.031303125 -0.00125 -0.015946875 0.697292
311 1 -0.031303125 -0.00125 -0.014765625 0.645682
312 1 -0.031303125 -0.00125 -0.013584375 0.698135
313 1 -0.031303125 -0.00125 -0.012403125 0.646557
314 1 -0.031303125 -0.00125 -0.011221875 0.698649
315 1 -0.031303125 -0.00125 -0.010040625 0.646982
316 1 -0.031303125 -0.00125 -0.008859375 0.698252
317 1 -0.031303125 -0.00125 -0.007678125 0.646196
318 1 -0.031303125 -0.00125 -0.006496875 0.69732
319 1 -0.031303125 -0.00125 -0.005315625 0.644759
320 1 -0.031303125 -0.00125 -0.004134375 0.695286
321 1 -0.031303125 -0.00125 -0.002953125 0.642377
322 1 -0.031303125 -0.00125 -0.001771875 0.692623
323 1 -0.031303125 -0.00125 -0.000590625 0.639788
324 1 -0.031303125 -0.00125 0.000590625 0.689452
325 1 -0.031303125 -0.00125 0.001771875 0.636589
326 1 -0.031303125 -0.00125 0.002953125 0.685749
327 1 -0.031303125 -0.00125 0.004134375 0.633884
328 1 -0.031303125 -0.00125 0.005315625 0.682711
329 1 -0.031303125 -0.00125 0.006496875 0.632045
330 1 -0.031303125 -0.00125 0.007678125 0.68031
331 1 -0.031303125 -0.00125 0.008859375 0.63024
332 1 -0.031303125 -0.00125 0.010040625 0.677967
333 1 -0.031303125 -0.00125 0.011221875 0.628164
334 1 -0.031303125 -0.00125 0.012403125 0.675363
335 1 -0.031303125 -0.00125 0.013584375 0.625709
336 1 -0.031303125 -0.00125 0.014765625 0.671787
337 1 -0.031303125 -0.00125 0.015946875 0.622398
338 1 -0.031303125 -0.00125 0.017128125 0.667215
339 1 -0.031303125 -0.00125 0.018309375 0.618608
340 1 -0.031303125 -0.00125 0.019490625 0.660772
341 1 -0.031303125 0.000116666666667 -0.019490625 0.6443
342 1 -0.031303125 0.000116666666667 -0.018309375 0.696415
343 1 -0.031303125 0.000116666666667 -0.017128125 0.644943
344 1 -0.031303125 0.000116666666667 -0.015946875 0.697292
345 1 -0.031303125 0.000116666666667 -0.014765625 0.645682
346 1 -0.031303125 0.000116666666667 -0.013584375 0.698135
347 1 -0.031303125 0.000116666666667 -0.012403125 0.646557
348 1 -0.031303125 0.000116666666667 -0.011221875 0.698649
349 1 -0.031303125 0.000116666666667 -0.010040625 0.646982
350 1 -0.031303125 0.000116666666667 -0.008859375 0.698252
351 1 -0.031303125 0.000116666666667 -0.007678125 0.646196
352 1 -0.031303125 0.000116666666667 -0.006496875 0.69732
353 1 -0.031303125 0.000116666666667 -0.005315625 0.644759
354 1 -0.031303125 0.000116666666667 -0.004134375 0.695286
355 1 -0.031303125 0.000116666666667 -0.002953125 0.642377
356 1 -0.031303125 0.000116666666667 -0.001771875 0.692623
357 1 -0.031303125 0.000116666666667 -0.000590625 0.639788
358 1 -0.031303125 0.000116666666667 0.000590625 0.689452
359 1 -0.031303125 0.000116666666667 0.001771875 0.636589
360 1 -0.031303125 0.000116666666667 0.002953125 0.685749
361 1 -0.031303125 0.000116666666667 0.004134375 0.633884
362 1 -0.031303125 0.000116666666667 0.005315625 0.682711
363 1 -0.031303125 0.000116666666667 0.006496875 0.632045
364 1 -0.031303125 0.000116666666667 0.007678125 0.68031
365 1 -0.031303125 0.000116666666667 0.008859375 0.63024
366 1 -0.031303125 0.000116666666667 0.010040625 0.677967
367 1 -0.031303125 0.000116666666667 0.011221875 0.628164
368 1 -0.031303125 0.000116666666667 0.012403125 0.675363
369 1 -0.031303125 0.000116666666667 0.013584375 0.625709
370 1 -0.031303125 0.000116666666667 0.014765625 0.671787
371 1 -0.031303125 0.000116666666667 0.015946875 0.622398
372 1 -0.031303125 0.000116666666667 0.017128125 0.667215
373 1 -0.031303125 0.000116666666667 0.018309375 0.618608
374 1 -0.031303125 0.000116666666667 0.019490625 0.660772
375 1 -0.030121875 -0.00261666666667 -0.020671875 0.677495
376 1 -0.030121875 -0.00261666666667 -0.019490625 0.747338
377 1 -0.030121875 -0.00261666666667 -0.018309375 0.677398
378 1 -0.030121875 -0.00261666666667 -0.017128125 0.748449
379 1 -0.030121875 -0.00261666666667 -0.015946875 0.678153
380 1 -0.030121875 -0.00261666666667 -0.014765625 0.750056
381 1 -0.030121875 -0.00261666666667 -0.013584375 0.678923
382 1 -0.030121875 -0.00261666666667 -0.012403125 0.751112
383 1 -0.030121875 -0.00261666666667 -0.011221875 0.678904
384 1 -0.030121875 -0.00261666666667 -0.010040625 0.750703
385 1 -0.030121875 -0.00261666666667 -0.008859375 0.678333
386 1 -0.030121875 -0.00261666666667 -0.007678125 0.74971
387 1 -0.030121875 -0.00261666666667 -0.006496875 0.676677
388 1 -0.030121875 -0.00261666666667 -0.005315625 0.746769
389 1 -0.030121875 -0.00261666666667 -0.004134375 0.674785
390 1 -0.030121875 -0.00261666666667 -0.002953125 0.74311
391 1 -0.030121875 -0.00261666666667 -0.001771875 0.67228
392 1 -0.030121875 -0.00261666666667 -0.000590625 0.738757
393 1 -0.030121875 -0.00261666666667 0.000590625 0.669065
394 1 -0.030121875 -0.00261666666667 0.001771875 0.733887
395 1 -0.030121875 -0.00261666666667 0.002953125 0.66629
396 1 -0.030121875 -0.00261666666667 0.004134375 0.730361
397 1 -0.030121875 -0.00261666666667 0.005315625 0.663639
398 1 -0.030121875 -0.00261666666667 0.006496875 0.727574
399 1 -0.030121875 -0.00261666666667 0.007678125 0.66131
400 1 -0.030121875 -0.00261666666667 0.008859375 0.724814
401 1 -0.030121875 -0.00261666666667 0.010040625 0.659307
402 1 -0.030121875 -0.00261666666667 0.011221875 0.72206
403 1 -0.030121875 -0.00261666666667 0.012403125 0.656734
404 1 -0.030121875 -0.00261666666667 0.013584375 0.718639
405 1 -0.030121875 -0.00261666666667 0.014765625 0.65358
406 1 -0.030121875 -0.00261666666667 0.015946875 0.714228
407 1 -0.030121875 -0.00261666666667 0.017128125 0.649042
408 1 -0.030121875 -0.00261666666667 0.018309375 0.707819
409 1 -0.030121875 -0.00261666666667 0.019490625 0.642968
410 1 -0.030121875 -0.00261666666667 0.020671875 0.700279
411 1 -0.030121875 -0.00125 -0.020671875 0.677495
412 1 -0.030121875 -0.00125 -0.019490625 0.747338
413 1 -0.030121875 -0.00125 -0.018309375 0.677398
414 1 -0.030121875 -0.00125 -0.017128125 0.748449
415 1 -0.030121875 -0.00125 -0.015946875 0.678153
416 1 -0.030121875 -0.00125 -0.014765625 0.750056
417 1 -0.030121875 -0.00125 -0.013584375 0.678923
418 1 -0.030121875 -0.00125 -0.012403125 0.751112
419 1 -0.030121875 -0.00125 -0.011221875 0.678904
420 1 -0.030121875 -0.00125 -0.010040625 0.750703
421 1 -0.030121875 -0.00125 -0.008859375 0.678333
422 1 -0.030121875 -0.00125 -0.007678125 0.74971
423 1 -0.030121875 -0.00125 -0.006496875 0.676677
424 1 -0.030121875 -0.00125 -0.005315625 0.746769
425 1 -0.030121875 -0.00125 -0.004134375 0.674785
426 1 -0.030121875 -0.00125 -0.002953125 0.74311
427 1 -0.030121875 -0.00125 -0.001771875 0.67228
428 1 -0.030121875 -0.00125 -0.000590625 0.738757
429 1 -0.030121875 -0.00125 0.000590625 0.669065
430 1 -0.030121875 -0.00125 0.001771875 0.733887
431 1 -0.030121875 -0.00125 0.002953125 0.66629
432 1 -0.030121875 -0.00125 0.004134375 0.730361
433 1 -0.030121875 -0.00125 0.005315625 0.663639
434 1 -0.030121875 -0.00125 0.006496875 0.727574
435 1 -0.030121875 -0.00125 0.007678125 0.66131
436 1 -0.030121875 -0.00125 0.008859375 0.724814
437 1 -0.030121875 -0.00125 0.010040625 0.659307
438 1 -0.030121875 -0.00125 0.011221875 0.72206
439 1 -0.030121875 -0.00125 0.012403125 0.656734
440 1 -0.030121875 -0.00125 0.013584375 0.718639
441 1 -0.030121875 -0.00125 0.014765625 0.65358
442 1 -0.030121875 -0.00125 0.015946875 0.714228
443 1 -0.030121875 -0.00125 0.017128125 0.649042
444 1 -0.030121875 -0.00125 0.018309375 0.707819
445 1 -0.030121875 -0.00125 0.019490625 0.642968
446 1 -0.030121875 -0.00125 0.020671875 0.700279
447 1 -0.030121875 0.000116666666667 -0.020671875 0.677495
448 1 -0.030121875 0.000116666666667 -0.019490625 0.747338
449 1 -0.030121875 0.000116666666667 -0.018309375 0.677398
450 1 -0.030121875 0.000116666666667 -0.017128125 0.748449
451 1 -0.030121875 0.000116666666667 -0.015946875 0.678153
452 1 -0.030121875 0.000116666666667 -0.014765625 0.750056
453 1 -0.030121875 0.000116666666667 -0.013584375 0.678923
454 1 -0.030121875 0.000116666666667 -0.012403125 0.751112
455 1 -0.030121875 0.000116666666667 -0.011221875 0.678904
456 1 -0.030121875 0.000116666666667 -0.010040625 0.750703
457 1 -0.030121875 0.000116666666667 -0.008859375 0.678333
458 1 -0.030121875 0.000116666666667 -0.007678125 0.74971
459 1 -0.030121875 0.000116666666667 -0.006496875 0.676677
460 1 -0.030121875 0.000116666666667 -0.005315625 0.746769
461 1 -0.030121875 0.000116666666667 -0.004134375 0.674785
462 1 -0.030121875 0.000116666666667 -0.002953125 0.74311
463 1 -0.030121875 0.000116666666667 -0.001771875 0.67228
464 1 -0.030121875 0.000116666666667 -0.000590625 0.738757
465 1 -0.030121875 0.000116666666667 0.000590625 0.669065
466 1 -0.030121875 0.000116666666667 0.001771875 0.733887
467 1 -0.030121875 0.000116666666667 0.002953125 0.66629
468 1 -0.030121875 0.000116666666667 0.004134375 0.730361
469 1 -0.030121875 0.000116666666667 0.005315625 0.663639
470 1 -0.030121875 0.000116666666667 0.006496875 0.727574
471 1 -0.030121875 0.000116666666667 0.007678125 0.66131
472 1 -0.030121875 0.000116666666667 0.008859375 0.724814
473 1 -0.030121875 0.000116666666667 0.010040625 0.659307
474 1 -0.030121875 0.000116666666667 0.011221875 0.72206
475 1 -0.030121875 0.000116666666667 0.012403125 0.656734
476 1 -0.030121875 0.000116666666667 0.013584375 0.718639
477 1 -0.030121875 0.000116666666667 0.014765625 0.65358
478 1 -0.030121875 0.000116666666667 0.015946875 0.714228
479 1 -0.030121875 0.000116666666667 0.017128125 0.649042
480 1 -0.030121875 0.000116666666667 0.018309375 0.707819
481 1 -0.030121875 0.000116666666667 0.019490625 0.642968
482 1 -0.030121875 0.000116666666667 0.020671875 0.700279
483 1 -0.028940625 -0.00261666666667 -0.021853125 0.654594
484 1 -0.028940625 -0.00261666666667 -0.020671875 0.711808
485 1 -0.028940625 -0.00261666666667 -0.019490625 0.65552
486 1 -0.028940625 -0.00261666666667 -0.018309375 0.712532
487 1 -0.028940625 -0.00261666666667 -0.017128125 0.656384
488 1 -0.028940625 -0.00261666666667 -0.015946875 0.713729
489 1 -0.028940625 -0.00261666666667 -0.014765625 0.657196
490 1 -0.028940625 -0.00261666666667 -0.013584375 0.714675
491 1 -0.028940625 -0.00261666666667 -0.012403125 0.657856
492 1 -0.028940625 -0.00261666666667 -0.011221875 0.715124
493 1 -0.028940625 -0.00261666666667 -0.010040625 0.658046
494 1 -0.028940625 -0.00261666666667 -0.008859375 0.71438
495 1 -0.028940625 -0.00261666666667 -0.007678125 0.656905
496 1 -0.028940625 -0.00261666666667 -0.006496875 0.712965
497 1 -0.028940625 -0.00261666666667 -0.005315625 0.655032
498 1 -0.028940625 -0.00261666666667 -0.004134375 0.710389
499 1 -0.028940625 -0.00261666666667 -0.002953125 0.652079
500 1 -0.028940625 -0.00261666666667 -0.001771875 0.707044
501 1 -0.028940625 -0.00261666666667 -0.000590625 0.648923
502 1 -0.028940625 -0.00261666666667 0.000590625 0.703018
503 1 -0.028940625 -0.00261666666667 0.001771875 0.645306
504 1 -0.028940625 -0.00261666666667 0.002953125 0.698392
505 1 -0.028940625 -0.00261666666667 0.004134375 0.642026
506 1 -0.028940625 -0.00261666666667 0.005315625 0.694893
507 1 -0.028940625 -0.00261666666667 0.006496875 0.639852
508 1 -0.028940625 -0.00261666666667 0.007678125 0.692143
509 1 -0.028940625 -0.00261666666667 0.008859375 0.637955
510 1 -0.028940625 -0.00261666666667 0.010040625 0.689466
511 1 -0.028940625 -0.00261666666667 0.011221875 0.635879
512 1 -0.028940625 -0.00261666666667 0.012403125 0.686649
513 1 -0.028940625 -0.00261666666667 0.013584375 0.633465
514 1 -0.028940625 -0.00261666666667 0.014765625 0.682794
515 1 -0.028940625 -0.00261666666667 0.015946875 0.630191
516 1 -0.028940625 -0.00261666666667 0.017128125 0.677961
517 1 -0.028940625 -0.00261666666667 0.018309375 0.62621
518 1 -0.028940625 -0.00261666666667 0.019490625 0.671316
519 1 -0.028940625 -0.00261666666667 0.020671875 0.620815
520 1 -0.028940625 -0.00261666666667 0.021853125 0.663617
521 1 -0.028940625 -0.00125 -0.021853125 0.654594
522 1 -0.028940625 -0.00125 -0.020671875 0.711808
523 1 -0.028940625 -0.00125 -0.019490625 0.65552
524 1 -0.028940625 -0.00125 -0.018309375 0.712532
525 1 -0.028940625 -0.00125 -0.017128125 0.656384
526 1 -0.028940625 -0.00125 -0.015946875 0.713729
527 1 -0.028940625 -0.00125 -0.014765625 0.657196
528 1 -0.028940625 -0.00125 -0.013584375 0.714675
529 1 -0.028940625 -0.00125 -0.012403125 0.657856
530 1 -0.028940625 -0.00125 -0.011221875 0.715124
531 1 -0.028940625 -0.00125 -0.010040625 0.658046
532 1 -0.028940625 -0.00125 -0.008859375 0.71438
533 1 -0.028940625 -0.00125 -0.007678125 0.656905
534 1 -0.028940625 -0.00125 -0.006496875 0.712965
535 1 -0.028940625 -0.00125 -0.005315625 0.655032
536 1 -0.028940625 -0.00125 -0.004134375 0.710389
537 1 -0.028940625 -0.00125 -0.002953125 0.652079
538 1 -0.028940625 -0.00125 -0.001771875 0.707044