ITEM: TIMESTEP
0
ITEM: NUMBER OF ATOMS
9240
ITEM: BOX BOUNDS ss ss ss
-3.7007399999999996e-02 3.7007399999999996e-02
-2.0002499999999999e-03 2.5000000000000004e-07
-3.7007399999999996e-02 3.7007399999999996e-02
ITEM: ATOMS id type x y z c_1
0 1 -0.037209375 -0.00261666666667 -0.000590625 0.34554
1 1 -0.037209375 -0.00125 -0.000590625 0.34554
2 1 -0.037209375 0.000116666666667 -0.000590625 0.34554
3 1 -0.036028125 -0.00261666666667 -0.007678125 0.388483
4 1 -0.036028125 -0.00261666666667 -0.006496875 0.291974
5 1 -0.036028125 -0.00261666666667 -0.005315625 0.402407
6 1 -0.036028125 -0.00261666666667 -0.004134375 0.304372
7 1 -0.036028125 -0.00261666666667 -0.002953125 0.411306
8 1 -0.036028125 -0.00261666666667 -0.001771875 0.313923
9 1 -0.036028125 -0.00261666666667 -0.000590625 0.417432
10 1 -0.036028125 -0.00261666666667 0.000590625 0.317647
11 1 -0.036028125 -0.00261666666667 0.001771875 0.415553
12 1 -0.036028125 -0.00261666666667 0.002953125 0.313588
13 1 -0.036028125 -0.00261666666667 0.004134375 0.405267
14 1 -0.036028125 -0.00261666666667 0.005315625 0.297961
15 1 -0.036028125 -0.00261666666667 0.006496875 0.383311
16 1 -0.036028125 -0.00261666666667 0.007678125 0.274791
17 1 -0.036028125 -0.00125 -0.007678125 0.388483
18 1 -0.036028125 -0.00125 -0.006496875 0.291974
19 1 -0.036028125 -0.00125 -0.005315625 0.402407
20 1 -0.036028125 -0.00125 -0.004134375 0.304372
21 1 -0.036028125 -0.00125 -0.002953125 0.411306
22 1 -0.036028125 -0.00125 -0.001771875 0.313923
23 1 -0.036028125 -0.00125 -0.000590625 0.417432
24 1 -0.036028125 -0.00125 0.000590625 0.317647
25 1 -0.036028125 -0.00125 0.001771875 0.415553
26 1 -0.036028125 -0.00125 0.002953125 0.313588
27 1 -0.036028125 -0.00125 0.004134375 0.405267
28 1 -0.036028125 -0.00125 0.005315625 0.297961
29 1 -0.036028125 -0.00125 0.006496875 0.383311
30 1 -0.036028125 -0.00125 0.007678125 0.274791
31 1 -0.036028125 0.000116666666667 -0.007678125 0.388483
32 1 -0.036028125 0.000116666666667 -0.006496875 0.291974
33 1 -0.036028125 0.000116666666667 -0.005315625 0.402407
34 1 -0.036028125 0.000116666666667 -0.004134375 0.304372
35 1 -0.036028125 0.000116666666667 -0.002953125 0.411306
36 1 -0.036028125 0.000116666666667 -0.001771875 0.313923
37 1 -0.036028125 0.000116666666667 -0.000590625 0.417432
38 1 -0.036028125 0.000116666666667 0.000590625 0.317647
39 1 -0.036028125 0.000116666666667 0.001771875 0.415553
40 1 -0.036028125 0.000116666666667 0.002953125 0.313588
41 1 -0.036028125 0.000116666666667 0.004134375 0.405267
42 1 -0.036028125 0.000116666666667 0.005315625 0.297961
43 1 -0.036028125 0.000116666666667 0.006496875 0.383311
44 1 -0.036028125 0.000116666666667 0.007678125 0.274791
45 1 -0.034846875 -0.00261666666667 -0.011221875 0.244244
46 1 -0.034846875 -0.00261666666667 -0.010040625 0.282319
47 1 -0.034846875 -0.00261666666667 -0.008859375 0.269658
48 1 -0.034846875 -0.00261666666667 -0.007678125 0.297676
49 1 -0.034846875 -0.00261666666667 -0.006496875 0.291195
50 1 -0.034846875 -0.00261666666667 -0.005315625 0.309095
51 1 -0.034846875 -0.00261666666667 -0.004134375 0.311229
52 1 -0.034846875 -0.00261666666667 -0.002953125 0.317657
53 1 -0.034846875 -0.00261666666667 -0.001771875 0.327292
54 1 -0.034846875 -0.00261666666667 -0.000590625 0.321345
55 1 -0.034846875 -0.00261666666667 0.000590625 0.336176
56 1 -0.034846875 -0.00261666666667 0.001771875 0.319925
57 1 -0.034846875 -0.00261666666667 0.002953125 0.334602
58 1 -0.034846875 -0.00261666666667 0.004134375 0.306513
59 1 -0.034846875 -0.00261666666667 0.005315625 0.319901
60 1 -0.034846875 -0.00261666666667 0.006496875 0.285344
61 1 -0.034846875 -0.00261666666667 0.007678125 0.291262
62 1 -0.034846875 -0.00261666666667 0.008859375 0.256649
63 1 -0.034846875 -0.00261666666667 0.010040625 0.253558
64 1 -0.034846875 -0.00261666666667 0.011221875 0.226905
65 1 -0.034846875 -0.00125 -0.011221875 0.244244
66 1 -0.034846875 -0.00125 -0.010040625 0.282319
67 1 -0.034846875 -0.00125 -0.008859375 0.269658
68 1 -0.034846875 -0.00125 -0.007678125 0.297676
69 1 -0.034846875 -0.00125 -0.006496875 0.291195
70 1 -0.034846875 -0.00125 -0.005315625 0.309095
71 1 -0.034846875 -0.00125 -0.004134375 0.311229
72 1 -0.034846875 -0.00125 -0.002953125 0.317657
73 1 -0.034846875 -0.00125 -0.001771875 0.327292
74 1 -0.034846875 -0.00125 -0.000590625 0.321345
75 1 -0.034846875 -0.00125 0.000590625 0.336176
76 1 -0.034846875 -0.00125 0.001771875 0.319925
77 1 -0.034846875 -0.00125 0.002953125 0.334602
78 1 -0.034846875 -0.00125 0.004134375 0.306513
79 1 -0.034846875 -0.00125 0.005315625 0.319901
80 1 -0.034846875 -0.00125 0.006496875 0.285344
81 1 -0.034846875 -0.00125 0.007678125 0.291262
82 1 -0.034846875 -0.00125 0.008859375 0.256649
83 1 -0.034846875 -0.00125 0.010040625 0.253558
84 1 -0.034846875 -0.00125 0.011221875 0.226905
85 1 -0.034846875 0.000116666666667 -0.011221875 0.244244
86 1 -0.034846875 0.000116666666667 -0.010040625 0.282319
87 1 -0.034846875 0.000116666666667 -0.008859375 0.269658
88 1 -0.034846875 0.000116666666667 -0.007678125 0.297676
89 1 -0.034846875 0.000116666666667 -0.006496875 0.291195
90 1 -0.034846875 0.000116666666667 -0.005315625 0.309095
91 1 -0.034846875 0.000116666666667 -0.004134375 0.311229
92 1 -0.034846875 0.000116666666667 -0.002953125 0.317657
93 1 -0.034846875 0.000116666666667 -0.001771875 0.327292
94 1 -0.034846875 0.000116666666667 -0.000590625 0.321345
95 1 -0.034846875 0.000116666666667 0.000590625 0.336176
96 1 -0.034846875 0.000116666666667 0.001771875 0.319925
97 1 -0.034846875 0.000116666666667 0.002953125 0.334602
98 1 -0.034846875 0.000116666666667 0.004134375 0.306513
99 1 -0.034846875 0.000116666666667 0.005315625 0.319901
100 1 -0.034846875 0.000116666666667 0.006496875 0.285344
101 1 -0.034846875 0.000116666666667 0.007678125 0.291262
102 1 -0.034846875 0.000116666666667 0.008859375 0.256649
103 1 -0.034846875 0.000116666666667 0.010040625 0.253558
104 1 -0.034846875 0.000116666666667 0.011221875 0.226905
105 1 -0.033665625 -0.00261666666667 -0.013584375 0.273836
106 1 -0.033665625 -0.00261666666667 -0.012403125 0.387835
107 1 -0.033665625 -0.00261666666667 -0.011221875 0.316497
108 1 -0.033665625 -0.00261666666667 -0.010040625 0.422349
109 1 -0.033665625 -0.00261666666667 -0.008859375 0.351055
110 1 -0.033665625 -0.00261666666667 -0.007678125 0.447144
111 1 -0.033665625 -0.00261666666667 -0.006496875 0.378809
112 1 -0.033665625 -0.00261666666667 -0.005315625 0.468013
113 1 -0.033665625 -0.00261666666667 -0.004134375 0.400365
114 1 -0.033665625 -0.00261666666667 -0.002953125 0.481754
115 1 -0.033665625 -0.00261666666667 -0.001771875 0.417871
116 1 -0.033665625 -0.00261666666667 -0.000590625 0.491721
117 1 -0.033665625 -0.00261666666667 0.000590625 0.425991
118 1 -0.033665625 -0.00261666666667 0.001771875 0.49068
119 1 -0.033665625 -0.00261666666667 0.002953125 0.422585
120 1 -0.033665625 -0.00261666666667 0.004134375 0.478484
121 1 -0.033665625 -0.00261666666667 0.005315625 0.399873
122 1 -0.033665625 -0.00261666666667 0.006496875 0.449431
123 1 -0.033665625 -0.00261666666667 0.007678125 0.361779
124 1 -0.033665625 -0.00261666666667 0.008859375 0.409854
125 1 -0.033665625 -0.00261666666667 0.010040625 0.310491
126 1 -0.033665625 -0.00261666666667 0.011221875 0.35907
127 1 -0.033665625 -0.00261666666667 0.012403125 0.253533
128 1 -0.033665625 -0.00261666666667 0.013584375 0.306323
129 1 -0.033665625 -0.00125 -0.013584375 0.273836
130 1 -0.033665625 -0.00125 -0.012403125 0.387835
131 1 -0.033665625 -0.00125 -0.011221875 0.316497
132 1 -0.033665625 -0.00125 -0.010040625 0.422349
133 1 -0.033665625 -0.00125 -0.008859375 0.351055
134 1 -0.033665625 -0.00125 -0.007678125 0.447144
135 1 -0.033665625 -0.00125 -0.006496875 0.378809
136 1 -0.033665625 -0.00125 -0.005315625 0.468013
137 1 -0.033665625 -0.00125 -0.004134375 0.400365
138 1 -0.033665625 -0.00125 -0.002953125 0.481754
139 1 -0.033665625 -0.00125 -0.001771875 0.417871
140 1 -0.033665625 -0.00125 -0.000590625 0.491721
141 1 -0.033665625 -0.00125 0.000590625 0.425991
142 1 -0.033665625 -0.00125 0.001771875 0.49068
143 1 -0.033665625 -0.00125 0.002953125 0.422585
144 1 -0.033665625 -0.00125 0.004134375 0.478484
145 1 -0.033665625 -0.00125 0.005315625 0.399873
146 1 -0.033665625 -0.00125 0.006496875 0.449431
147 1 -0.033665625 -0.00125 0.007678125 0.361779
148 1 -0.033665625 -0.00125 0.008859375 0.409854
149 1 -0.033665625 -0.00125 0.010040625 0.310491
150 1 -0.033665625 -0.00125 0.011221875 0.35907
151 1 -0.033665625 -0.00125 0.012403125 0.253533
152 1 -0.033665625 -0.00125 0.013584375 0.306323
153 1 -0.033665625 0.000116666666667 -0.013584375 0.273836
154 1 -0.033665625 0.000116666666667 -0.012403125 0.387835
155 1 -0.033665625 0.000116666666667 -0.011221875 0.316497
156 1 -0.033665625 0.000116666666667 -0.010040625 0.422349
157 1 -0.033665625 0.000116666666667 -0.008859375 0.351055
158 1 -0.033665625 0.000116666666667 -0.007678125 0.447144
159 1 -0.033665625 0.000116666666667 -0.006496875 0.378809
160 1 -0.033665625 0.000116666666667 -0.005315625 0.468013
161 1 -0.033665625 0.000116666666667 -0.004134375 0.400365
162 1 -0.033665625 0.000116666666667 -0.002953125 0.481754
163 1 -0.033665625 0.000116666666667 -0.001771875 0.417871
164 1 -0.033665625 0.000116666666667 -0.000590625 0.491721
165 1 -0.033665625 0.000116666666667 0.000590625 0.425991
166 1 -0.033665625 0.000116666666667 0.001771875 0.49068
167 1 -0.033665625 0.000116666666667 0.002953125 0.422585
168 1 -0.033665625 0.000116666666667 0.004134375 0.478484
169 1 -0.033665625 0.000116666666667 0.005315625 0.399873
170 1 -0.033665625 0.000116666666667 0.006496875 0.449431
171 1 -0.033665625 0.000116666666667 0.007678125 0.361779
172 1 -0.033665625 0.000116666666667 0.008859375 0.409854
173 1 -0.033665625 0.000116666666667 0.010040625 0.310491
174 1 -0.033665625 0.000116666666667 0.011221875 0.35907
175 1 -0.033665625 0.000116666666667 0.012403125 0.253533
176 1 -0.033665625 0.000116666666667 0.013584375 0.306323
177 1 -0.032484375 -0.00261666666667 -0.018309375 0.177097
178 1 -0.032484375 -0.00261666666667 -0.017128125 0.242385
179 1 -0.032484375 -0.00261666666667 -0.015946875 0.228652
180 1 -0.032484375 -0.00261666666667 -0.014765625 0.287679
181 1 -0.032484375 -0.00261666666667 -0.013584375 0.28377
182 1 -0.032484375 -0.00261666666667 -0.012403125 0.330292
183 1 -0.032484375 -0.00261666666667 -0.011221875 0.332575
184 1 -0.032484375 -0.00261666666667 -0.010040625 0.362804
185 1 -0.032484375 -0.00261666666667 -0.008859375 0.370472
186 1 -0.032484375 -0.00261666666667 -0.007678125 0.387148
187 1 -0.032484375 -0.00261666666667 -0.006496875 0.397684
188 1 -0.032484375 -0.00261666666667 -0.005315625 0.404485
189 1 -0.032484375 -0.00261666666667 -0.004134375 0.422686
190 1 -0.032484375 -0.00261666666667 -0.002953125 0.416593
191 1 -0.032484375 -0.00261666666667 -0.001771875 0.443027
192 1 -0.032484375 -0.00261666666667 -0.000590625 0.422877
193 1 -0.032484375 -0.00261666666667 0.000590625 0.45569
194 1 -0.032484375 -0.00261666666667 0.001771875 0.42195
195 1 -0.032484375 -0.00261666666667 0.002953125 0.456741
196 1 -0.032484375 -0.00261666666667 0.004134375 0.404567
197 1 -0.032484375 -0.00261666666667 0.005315625 0.443152
198 1 -0.032484375 -0.00261666666667 0.006496875 0.375315
199 1 -0.032484375 -0.00261666666667 0.007678125 0.409696
200 1 -0.032484375 -0.00261666666667 0.008859375 0.331166
201 1 -0.032484375 -0.00261666666667 0.010040625 0.35614
202 1 -0.032484375 -0.00261666666667 0.011221875 0.281808
203 1 -0.032484375 -0.00261666666667 0.012403125 0.288094
204 1 -0.032484375 -0.00261666666667 0.013584375 0.230467
205 1 -0.032484375 -0.00261666666667 0.014765625 0.218644
206 1 -0.032484375 -0.00261666666667 0.015946875 0.184952
207 1 -0.032484375 -0.00261666666667 0.017128125 0.161987
208 1 -0.032484375 -0.00261666666667 0.018309375 0.151768
209 1 -0.032484375 -0.00125 -0.018309375 0.177097
210 1 -0.032484375 -0.00125 -0.017128125 0.242385
211 1 -0.032484375 -0.00125 -0.015946875 0.228652
212 1 -0.032484375 -0.00125 -0.014765625 0.287679
213 1 -0.032484375 -0.00125 -0.013584375 0.28377
214 1 -0.032484375 -0.00125 -0.012403125 0.330292
215 1 -0.032484375 -0.00125 -0.011221875 0.332575
216 1 -0.032484375 -0.00125 -0.010040625 0.362804
217 1 -0.032484375 -0.00125 -0.008859375 0.370472
218 1 -0.032484375 -0.00125 -0.007678125 0.387148
219 1 -0.032484375 -0.00125 -0.006496875 0.397684
220 1 -0.032484375 -0.00125 -0.005315625 0.404485
221 1 -0.032484375 -0.00125 -0.004134375 0.422686
222 1 -0.032484375 -0.00125 -0.002953125 0.416593
223 1 -0.032484375 -0.00125 -0.001771875 0.443027
224 1 -0.032484375 -0.00125 -0.000590625 0.422877
225 1 -0.032484375 -0.00125 0.000590625 0.45569
226 1 -0.032484375 -0.00125 0.001771875 0.42195
227 1 -0.032484375 -0.00125 0.002953125 0.456741
228 1 -0.032484375 -0.00125 0.004134375 0.404567
229 1 -0.032484375 -0.00125 0.005315625 0.443152
230 1 -0.032484375 -0.00125 0.006496875 0.375315
231 1 -0.032484375 -0.00125 0.007678125 0.409696
232 1 -0.032484375 -0.00125 0.008859375 0.331166
233 1 -0.032484375 -0.00125 0.010040625 0.35614
234 1 -0.032484375 -0.00125 0.011221875 0.281808
235 1 -0.032484375 -0.00125 0.012403125 0.288094
236 1 -0.032484375 -0.00125 0.013584375 0.230467
237 1 -0.032484375 -0.00125 0.014765625 0.218644
238 1 -0.032484375 -0.00125 0.015946875 0.184952
239 1 -0.032484375 -0.00125 0.017128125 0.161987
240 1 -0.032484375 -0.00125 0.018309375 0.151768
241 1 -0.032484375 0.000116666666667 -0.018309375 0.177097
242 1 -0.032484375 0.000116666666667 -0.017128125 0.242385
243 1 -0.032484375 0.000116666666667 -0.015946875 0.228652
244 1 -0.032484375 0.000116666666667 -0.014765625 0.287679
245 1 -0.032484375 0.000116666666667 -0.013584375 0.28377
246 1 -0.032484375 0.000116666666667 -0.012403125 0.330292
247 1 -0.032484375 0.000116666666667 -0.011221875 0.332575
248 1 -0.032484375 0.000116666666667 -0.010040625 0.362804
249 1 -0.032484375 0.000116666666667 -0.008859375 0.370472
250 1 -0.032484375 0.000116666666667 -0.007678125 0.387148
251 1 -0.032484375 0.000116666666667 -0.006496875 0.397684
252 1 -0.032484375 0.000116666666667 -0.005315625 0.404485
253 1 -0.032484375 0.000116666666667 -0.004134375 0.422686
254 1 -0.032484375 0.000116666666667 -0.002953125 0.416593
255 1 -0.032484375 0.000116666666667 -0.001771875 0.443027
256 1 -0.032484375 0.000116666666667 -0.000590625 0.422877
257 1 -0.032484375 0.000116666666667 0.000590625 0.45569
258 1 -0.032484375 0.000116666666667 0.001771875 0.42195
259 1 -0.032484375 0.000116666666667 0.002953125 0.456741
260 1 -0.032484375 0.000116666666667 0.004134375 0.404567
261 1 -0.032484375 0.000116666666667 0.005315625 0.443152
262 1 -0.032484375 0.000116666666667 0.006496875 0.375315
263 1 -0.032484375 0.000116666666667 0.007678125 0.409696
264 1 -0.032484375 0.000116666666667 0.008859375 0.331166
265 1 -0.032484375 0.000116666666667 0.010040625 0.35614
266 1 -0.032484375 0.000116666666667 0.011221875 0.281808
267 1 -0.032484375 0.000116666666667 0.012403125 0.288094
268 1 -0.032484375 0.000116666666667 0.013584375 0.230467
269 1 -0.032484375 0.000116666666667 0.014765625 0.218644
270 1 -0.032484375 0.000116666666667 0.015946875 0.184952
271 1 -0.032484375 0.000116666666667 0.017128125 0.161987
272 1 -0.032484375 0.000116666666667 0.018309375 0.151768
273 1 -0.031303125 -0.00261666666667 -0.019490625 0.315002
274 1 -0.031303125 -0.00261666666667 -0.018309375 0.273591
275 1 -0.031303125 -0.00261666666667 -0.017128125 0.374477
276 1 -0.031303125 -0.00261666666667 -0.015946875 0.343968
277 1 -0.031303125 -0.00261666666667 -0.014765625 0.433479
278 1 -0.031303125 -0.00261666666667 -0.013584375 0.408853
279 1 -0.031303125 -0.00261666666667 -0.012403125 0.48127
280 1 -0.031303125 -0.00261666666667 -0.011221875 0.458894
281 1 -0.031303125 -0.00261666666667 -0.010040625 0.51522
282 1 -0.031303125 -0.00261666666667 -0.008859375 0.491787
283 1 -0.031303125 -0.00261666666667 -0.007678125 0.53875
284 1 -0.031303125 -0.00261666666667 -0.006496875 0.516238
285 1 -0.031303125 -0.00261666666667 -0.005315625 0.557456
286 1 -0.031303125 -0.00261666666667 -0.004134375 0.532483
287 1 -0.031303125 -0.00261666666667 -0.002953125 0.569138
288 1 -0.031303125 -0.00261666666667 -0.001771875 0.545382
289 1 -0.031303125 -0.00261666666667 -0.000590625 0.578462
290 1 -0.031303125 -0.00261666666667 0.000590625 0.55257
291 1 -0.031303125 -0.00261666666667 0.001771875 0.578661
292 1 -0.031303125 -0.00261666666667 0.002953125 0.554849
293 1 -0.031303125 -0.00261666666667 0.004134375 0.570089
294 1 -0.031303125 -0.00261666666667 0.005315625 0.542885
295 1 -0.031303125 -0.00261666666667 0.006496875 0.546858
296 1 -0.031303125 -0.00261666666667 0.007678125 0.518442
297 1 -0.031303125 -0.00261666666667 0.008859375 0.509949
298 1 -0.031303125 -0.00261666666667 0.010040625 0.461918
299 1 -0.031303125 -0.00261666666667 0.011221875 0.450589
300 1 -0.031303125 -0.00261666666667 0.012403125 0.382589
301 1 -0.031303125 -0.00261666666667 0.013584375 0.382707
302 1 -0.031303125 -0.00261666666667 0.014765625 0.295973
303 1 -0.031303125 -0.00261666666667 0.015946875 0.312962
304 1 -0.031303125 -0.00261666666667 0.017128125 0.221305
305 1 -0.031303125 -0.00261666666667 0.018309375 0.256109
306 1 -0.031303125 -0.00261666666667 0.019490625 0.168313
307 1 -0.031303125 -0.00125 -0.019490625 0.315002
308 1 -0.031303125 -0.00125 -0.018309375 0.273591
309 1 -0.031303125 -0.00125 -0.017128125 0.374477
310 1 -0.031303125 -0.00125 -0.015946875 0.343968
311 1 -0.031303125 -0.00125 -0.014765625 0.433479
312 1 -0.031303125 -0.00125 -0.013584375 0.408853
313 1 -0.031303125 -0.00125 -0.012403125 0.48127
314 1 -0.031303125 -0.00125 -0.011221875 0.458894
315 1 -0.031303125 -0.00125 -0.010040625 0.51522
316 1 -0.031303125 -0.00125 -0.008859375 0.491787
317 1 -0.031303125 -0.00125 -0.007678125 0.53875
318 1 -0.031303125 -0.00125 -0.006496875 0.516238
319 1 -0.031303125 -0.00125 -0.005315625 0.557456
320 1 -0.031303125 -0.00125 -0.004134375 0.532483
321 1 -0.031303125 -0.00125 -0.002953125 0.569138
322 1 -0.031303125 -0.00125 -0.001771875 0.545382
323 1 -0.031303125 -0.00125 -0.000590625 0.578462
324 1 -0.031303125 -0.00125 0.000590625 0.55257
325 1 -0.031303125 -0.00125 0.001771875 0.578661
326 1 -0.031303125 -0.00125 0.002953125 0.554849
327 1 -0.031303125 -0.00125 0.004134375 0.570089
328 1 -0.031303125 -0.00125 0.005315625 0.542885
329 1 -0.031303125 -0.00125 0.006496875 0.546858
330 1 -0.031303125 -0.00125 0.007678125 0.518442
331 1 -0.031303125 -0.00125 0.008859375 0.509949
332 1 -0.031303125 -0.00125 0.010040625 0.461918
333 1 -0.031303125 -0.00125 0.011221875 0.450589
334 1 -0.031303125 -0.00125 0.012403125 0.382589
335 1 -0.031303125 -0.00125 0.013584375 0.382707
336 1 -0.031303125 -0.00125 0.014765625 0.295973
337 1 -0.031303125 -0.00125 0.015946875 0.312962
338 1 -0.031303125 -0.00125 0.017128125 0.221305
339 1 -0.031303125 -0.00125 0.018309375 0.256109
340 1 -0.031303125 -0.00125 0.019490625 0.168313
341 1 -0.031303125 0.000116666666667 -0.019490625 0.315002
342 1 -0.031303125 0.000116666666667 -0.018309375 0.273591
343 1 -0.031303125 0.000116666666667 -0.017128125 0.374477
344 1 -0.031303125 0.000116666666667 -0.015946875 0.343968
345 1 -0.031303125 0.000116666666667 -0.014765625 0.433479
346 1 -0.031303125 0.000116666666667 -0.013584375 0.408853
347 1 -0.031303125 0.000116666666667 -0.012403125 0.48127
348 1 -0.031303125 0.000116666666667 -0.011221875 0.458894
349 1 -0.031303125 0.000116666666667 -0.010040625 0.51522
350 1 -0.031303125 0.000116666666667 -0.008859375 0.491787
351 1 -0.031303125 0.000116666666667 -0.007678125 0.53875
352 1 -0.031303125 0.000116666666667 -0.006496875 0.516238
353 1 -0.031303125 0.000116666666667 -0.005315625 0.557456
354 1 -0.031303125 0.000116666666667 -0.004134375 0.532483
355 1 -0.031303125 0.000116666666667 -0.002953125 0.569138
356 1 -0.031303125 0.000116666666667 -0.001771875 0.545382
357 1 -0.031303125 0.000116666666667 -0.000590625 0.578462
358 1 -0.031303125 0.000116666666667 0.000590625 0.55257
359 1 -0.031303125 0.000116666666667 0.001771875 0.578661
360 1 -0.031303125 0.000116666666667 0.002953125 0.554849
361 1 -0.031303125 0.000116666666667 0.004134375 0.570089
362 1 -0.031303125 0.000116666666667 0.005315625 0.542885
363 1 -0.031303125 0.000116666666667 0.006496875 0.546858
364 1 -0.031303125 0.000116666666667 0.007678125 0.518442
365 1 -0.031303125 0.000116666666667 0.008859375 0.509949
366 1 -0.031303125 0.000116666666667 0.010040625 0.461918
367 1 -0.031303125 0.000116666666667 0.011221875 0.450589
368 1 -0.031303125 0.000116666666667 0.012403125 0.382589
369 1 -0.031303125 0.000116666666667 0.013584375 0.382707
370 1 -0.031303125 0.000116666666667 0.014765625 0.295973
371 1 -0.031303125 0.000116666666667 0.015946875 0.312962
372 1 -0.031303125 0.000116666666667 0.017128125 0.221305
373 1 -0.031303125 0.000116666666667 0.018309375 0.256109
374 1 -0.031303125 0.000116666666667 0.019490625 0.168313
375 1 -0.030121875 -0.00261666666667 -0.020671875 0.22249
376 1 -0.030121875 -0.00261666666667 -0.019490625 0.28616
377 1 -0.030121875 -0.00261666666667 -0.018309375 0.286978
378 1 -0.030121875 -0.00261666666667 -0.017128125 0.348332
379 1 -0.030121875 -0.00261666666667 -0.015946875 0.355499
380 1 -0.030121875 -0.00261666666667 -0.014765625 0.405985
381 1 -0.030121875 -0.00261666666667 -0.013584375 0.418555
382 1 -0.030121875 -0.00261666666667 -0.012403125 0.452875
383 1 -0.030121875 -0.00261666666667 -0.011221875 0.466706
384 1 -0.030121875 -0.00261666666667 -0.010040625 0.482266
385 1 -0.030121875 -0.00261666666667 -0.008859375 0.501372
386 1 -0.030121875 -0.00261666666667 -0.007678125 0.502432
387 1 -0.030121875 -0.00261666666667 -0.006496875 0.526247
388 1 -0.030121875 -0.00261666666667 -0.005315625 0.51544
389 1 -0.030121875 -0.00261666666667 -0.004134375 0.548243
390 1 -0.030121875 -0.00261666666667 -0.002953125 0.525043
391 1 -0.030121875 -0.00261666666667 -0.001771875 0.565397
392 1 -0.030121875 -0.00261666666667 -0.000590625 0.530052
393 1 -0.030121875 -0.00261666666667 0.000590625 0.577827
394 1 -0.030121875 -0.00261666666667 0.001771875 0.529961
395 1 -0.030121875 -0.00261666666667 0.002953125 0.583269
396 1 -0.030121875 -0.00261666666667 0.004134375 0.51553
397 1 -0.030121875 -0.00261666666667 0.005315625 0.579715
398 1 -0.030121875 -0.00261666666667 0.006496875 0.491804
399 1 -0.030121875 -0.00261666666667 0.007678125 0.556923
400 1 -0.030121875 -0.00261666666667 0.008859375 0.453096
401 1 -0.030121875 -0.00261666666667 0.010040625 0.508354
402 1 -0.030121875 -0.00261666666667 0.011221875 0.394654
403 1 -0.030121875 -0.00261666666667 0.012403125 0.436077
404 1 -0.030121875 -0.00261666666667 0.013584375 0.326098
405 1 -0.030121875 -0.00261666666667 0.014765625 0.344282
406 1 -0.030121875 -0.00261666666667 0.015946875 0.258103
407 1 -0.030121875 -0.00261666666667 0.017128125 0.254501
408 1 -0.030121875 -0.00261666666667 0.018309375 0.204424
409 1 -0.030121875 -0.00261666666667 0.019490625 0.185782
410 1 -0.030121875 -0.00261666666667 0.020671875 0.167271
411 1 -0.030121875 -0.00125 -0.020671875 0.22249
412 1 -0.030121875 -0.00125 -0.019490625 0.28616
413 1 -0.030121875 -0.00125 -0.018309375 0.286978
414 1 -0.030121875 -0.00125 -0.017128125 0.348332
415 1 -0.030121875 -0.00125 -0.015946875 0.355499
416 1 -0.030121875 -0.00125 -0.014765625 0.405985
417 1 -0.030121875 -0.00125 -0.013584375 0.418555
418 1 -0.030121875 -0.00125 -0.012403125 0.452875
419 1 -0.030121875 -0.00125 -0.011221875 0.466706
420 1 -0.030121875 -0.00125 -0.010040625 0.482266
421 1 -0.030121875 -0.00125 -0.008859375 0.501372
422 1 -0.030121875 -0.00125 -0.007678125 0.502432
423 1 -0.030121875 -0.00125 -0.006496875 0.526247
424 1 -0.030121875 -0.00125 -0.005315625 0.51544
425 1 -0.030121875 -0.00125 -0.004134375 0.548243
426 1 -0.030121875 -0.00125 -0.002953125 0.525043
427 1 -0.030121875 -0.00125 -0.001771875 0.565397
428 1 -0.030121875 -0.00125 -0.000590625 0.530052
429 1 -0.030121875 -0.00125 0.000590625 0.577827
430 1 -0.030121875 -0.00125 0.001771875 0.529961
431 1 -0.030121875 -0.00125 0.002953125 0.583269
432 1 -0.030121875 -0.00125 0.004134375 0.51553
433 1 -0.030121875 -0.00125 0.005315625 0.579715
434 1 -0.030121875 -0.00125 0.006496875 0.491804
435 1 -0.030121875 -0.00125 0.007678125 0.556923
436 1 -0.030121875 -0.00125 0.008859375 0.453096
437 1 -0.030121875 -0.00125 0.010040625 0.508354
438 1 -0.030121875 -0.00125 0.011221875 0.394654
439 1 -0.030121875 -0.00125 0.012403125 0.436077
440 1 -0.030121875 -0.00125 0.013584375 0.326098
441 1 -0.030121875 -0.00125 0.014765625 0.344282
442 1 -0.030121875 -0.00125 0.015946875 0.258103
443 1 -0.030121875 -0.00125 0.017128125 0.254501
444 1 -0.030121875 -0.00125 0.018309375 0.204424
445 1 -0.030121875 -0.00125 0.019490625 0.185782
446 1 -0.030121875 -0.00125 0.020671875 0.167271
447 1 -0.030121875 0.000116666666667 -0.020671875 0.22249
448 1 -0.030121875 0.000116666666667 -0.019490625 0.28616
449 1 -0.030121875 0.000116666666667 -0.018309375 0.286978
450 1 -0.030121875 0.000116666666667 -0.017128125 0.348332
451 1 -0.030121875 0.000116666666667 -0.015946875 0.355499
452 1 -0.030121875 0.000116666666667 -0.014765625 0.405985
453 1 -0.030121875 0.000116666666667 -0.013584375 0.418555
454 1 -0.030121875 0.000116666666667 -0.012403125 0.452875
455 1 -0.030121875 0.000116666666667 -0.011221875 0.466706
456 1 -0.030121875 0.000116666666667 -0.010040625 0.482266
457 1 -0.030121875 0.000116666666667 -0.008859375 0.501372
458 1 -0.030121875 0.000116666666667 -0.007678125 0.502432
459 1 -0.030121875 0.000116666666667 -0.006496875 0.526247
460 1 -0.030121875 0.000116666666667 -0.005315625 0.51544
461 1 -0.030121875 0.000116666666667 -0.004134375 0.548243
462 1 -0.030121875 0.000116666666667 -0.002953125 0.525043
463 1 -0.030121875 0.000116666666667 -0.001771875 0.565397
464 1 -0.030121875 0.000116666666667 -0.000590625 0.530052
465 1 -0.030121875 0.000116666666667 0.000590625 0.577827
466 1 -0.030121875 0.000116666666667 0.001771875 0.529961
467 1 -0.030121875 0.000116666666667 0.002953125 0.583269
468 1 -0.030121875 0.000116666666667 0.004134375 0.51553
469 1 -0.030121875 0.000116666666667 0.005315625 0.579715
470 1 -0.030121875 0.000116666666667 0.006496875 0.491804
471 1 -0.030121875 0.000116666666667 0.007678125 0.556923
472 1 -0.030121875 0.000116666666667 0.008859375 0.453096
473 1 -0.030121875 0.000116666666667 0.010040625 0.508354
474 1 -0.030121875 0.000116666666667 0.011221875 0.394654
475 1 -0.030121875 0.000116666666667 0.012403125 0.436077
476 1 -0.030121875 0.000116666666667 0.013584375 0.326098
477 1 -0.030121875 0.000116666666667 0.014765625 0.344282
478 1 -0.030121875 0.000116666666667 0.015946875 0.258103
479 1 -0.030121875 0.000116666666667 0.017128125 0.254501
480 1 -0.030121875 0.000116666666667 0.018309375 0.204424
481 1 -0.030121875 0.000116666666667 0.019490625 0.185782
482 1 -0.030121875 0.000116666666667 0.020671875 0.167271
483 1 -0.028940625 -0.00261666666667 -0.021853125 0.363543
484 1 -0.028940625 -0.00261666666667 -0.020671875 0.343285
485 1 -0.028940625 -0.00261666666667 -0.019490625 0.428063
486 1 -0.028940625 -0.00261666666667 -0.018309375 0.417004
487 1 -0.028940625 -0.00261666666667 -0.017128125 0.488104
488 1 -0.028940625 -0.00261666666667 -0.015946875 0.477432
489 1 -0.028940625 -0.00261666666667 -0.014765625 0.537457
490 1 -0.028940625 -0.00261666666667 -0.013584375 0.523051
491 1 -0.028940625 -0.00261666666667 -0.012403125 0.576508
492 1 -0.028940625 -0.00261666666667 -0.011221875 0.558468
493 1 -0.028940625 -0.00261666666667 -0.010040625 0.604999
494 1 -0.028940625 -0.00261666666667 -0.008859375 0.583001
495 1 -0.028940625 -0.00261666666667 -0.007678125 0.624366
496 1 -0.028940625 -0.00261666666667 -0.006496875 0.602272
497 1 -0.028940625 -0.00261666666667 -0.005315625 0.639779
498 1 -0.028940625 -0.00261666666667 -0.004134375 0.614987
499 1 -0.028940625 -0.00261666666667 -0.002953125 0.64879
500 1 -0.028940625 -0.00261666666667 -0.001771875 0.625885
501 1 -0.028940625 -0.00261666666667 -0.000590625 0.656234
502 1 -0.028940625 -0.00261666666667 0.000590625 0.631782
503 1 -0.028940625 -0.00261666666667 0.001771875 0.655605
504 1 -0.028940625 -0.00261666666667 0.002953125 0.633918
505 1 -0.028940625 -0.00261666666667 0.004134375 0.647994
506 1 -0.028940625 -0.00261666666667 0.005315625 0.623625
507 1 -0.028940625 -0.00261666666667 0.006496875 0.627006
508 1 -0.028940625 -0.00261666666667 0.007678125 0.604116
509 1 -0.028940625 -0.00261666666667 0.008859375 0.59515
510 1 -0.028940625 -0.00261666666667 0.010040625 0.57106
511 1 -0.028940625 -0.00261666666667 0.011221875 0.54794
512 1 -0.028940625 -0.00261666666667 0.012403125 0.52564
513 1 -0.028940625 -0.00261666666667 0.013584375 0.488618
514 1 -0.028940625 -0.00261666666667 0.014765625 0.444248
515 1 -0.028940625 -0.00261666666667 0.015946875 0.410355
516 1 -0.028940625 -0.00261666666667 0.017128125 0.346454
517 1 -0.028940625 -0.00261666666667 0.018309375 0.337487
518 1 -0.028940625 -0.00261666666667 0.019490625 0.263956
519 1 -0.028940625 -0.00261666666667 0.020671875 0.281937
520 1 -0.028940625 -0.00261666666667 0.021853125 0.204161
521 1 -0.028940625 -0.00125 -0.021853125 0.363543
522 1 -0.028940625 -0.00125 -0.020671875 0.343285
523 1 -0.028940625 -0.00125 -0.019490625 0.428063
524 1 -0.028940625 -0.00125 -0.018309375 0.417004
525 1 -0.028940625 -0.00125 -0.017128125 0.488104
526 1 -0.028940625 -0.00125 -0.015946875 0.477432
527 1 -0.028940625 -0.00125 -0.014765625 0.537457
528 1 -0.028940625 -0.00125 -0.013584375 0.523051
529 1 -0.028940625 -0.00125 -0.012403125 0.576508
530 1 -0.028940625 -0.00125 -0.011221875 0.558468
531 1 -0.028940625 -0.00125 -0.010040625 0.604999
532 1 -0.028940625 -0.00125 -0.008859375 0.583001
533 1 -0.028940625 -0.00125 -0.007678125 0.624366
534 1 -0.028940625 -0.00125 -0.006496875 0.602272
535 1 -0.028940625 -0.00125 -0.005315625 0.639779
536 1 -0.028940625 -0.00125 -0.004134375 0.614987
537 1 -0.028940625 -0.00125 -0.002953125 0.64879