ITEM: TIMESTEP
0
ITEM: NUMBER OF ATOMS
9240
ITEM: BOX BOUNDS ss ss ss
-3.7007399999999996e-02 3.7007399999999996e-02
-2.0002499999999999e-03 2.5000000000000004e-07
-3.7007399999999996e-02 3.7007399999999996e-02
ITEM: ATOMS id type x y z c_1
0 1 -0.037209375 -0.00261666666667 -0.000590625 0.31594
1 1 -0.037209375 -0.00125 -0.000590625 0.31594
2 1 -0.037209375 0.000116666666667 -0.000590625 0.31594
3 1 -0.036028125 -0.00261666666667 -0.007678125 0.223254
4 1 -0.036028125 -0.00261666666667 -0.006496875 0.123196
5 1 -0.036028125 -0.00261666666667 -0.005315625 0.230715
6 1 -0.036028125 -0.00261666666667 -0.004134375 0.130716
7 1 -0.036028125 -0.00261666666667 -0.002953125 0.236138
8 1 -0.036028125 -0.00261666666667 -0.001771875 0.138095
9 1 -0.036028125 -0.00261666666667 -0.000590625 0.242485
10 1 -0.036028125 -0.00261666666667 0.000590625 0.143385
11 1 -0.036028125 -0.00261666666667 0.001771875 0.244939
12 1 -0.036028125 -0.00261666666667 0.002953125 0.144864
13 1 -0.036028125 -0.00261666666667 0.004134375 0.241343
14 1 -0.036028125 -0.00261666666667 0.005315625 0.138354
15 1 -0.036028125 -0.00261666666667 0.006496875 0.227958
16 1 -0.036028125 -0.00261666666667 0.007678125 0.126146
17 1 -0.036028125 -0.00125 -0.007678125 0.223254
18 1 -0.036028125 -0.00125 -0.006496875 0.123196
19 1 -0.036028125 -0.00125 -0.005315625 0.230715
20 1 -0.036028125 -0.00125 -0.004134375 0.130716
21 1 -0.036028125 -0.00125 -0.002953125 0.236138
22 1 -0.036028125 -0.00125 -0.001771875 0.138095
23 1 -0.036028125 -0.00125 -0.000590625 0.242485
24 1 -0.036028125 -0.00125 0.000590625 0.143385
25 1 -0.036028125 -0.00125 0.001771875 0.244939
26 1 -0.036028125 -0.00125 0.002953125 0.144864
27 1 -0.036028125 -0.00125 0.004134375 0.241343
28 1 -0.036028125 -0.00125 0.005315625 0.138354
29 1 -0.036028125 -0.00125 0.006496875 0.227958
30 1 -0.036028125 -0.00125 0.007678125 0.126146
31 1 -0.036028125 0.000116666666667 -0.007678125 0.223254
32 1 -0.036028125 0.000116666666667 -0.006496875 0.123196
33 1 -0.036028125 0.000116666666667 -0.005315625 0.230715
34 1 -0.036028125 0.000116666666667 -0.004134375 0.130716
35 1 -0.036028125 0.000116666666667 -0.002953125 0.236138
36 1 -0.036028125 0.000116666666667 -0.001771875 0.138095
37 1 -0.036028125 0.000116666666667 -0.000590625 0.242485
38 1 -0.036028125 0.000116666666667 0.000590625 0.143385
39 1 -0.036028125 0.000116666666667 0.001771875 0.244939
40 1 -0.036028125 0.000116666666667 0.002953125 0.144864
41 1 -0.036028125 0.000116666666667 0.004134375 0.241343
42 1 -0.036028125 0.000116666666667 0.005315625 0.138354
43 1 -0.036028125 0.000116666666667 0.006496875 0.227958
44 1 -0.036028125 0.000116666666667 0.007678125 0.126146
45 1 -0.034846875 -0.00261666666667 -0.011221875 0.121828
46 1 -0.034846875 -0.00261666666667 -0.010040625 0.18912
47 1 -0.034846875 -0.00261666666667 -0.008859375 0.138551
48 1 -0.034846875 -0.00261666666667 -0.007678125 0.201621
49 1 -0.034846875 -0.00261666666667 -0.006496875 0.150489
50 1 -0.034846875 -0.00261666666667 -0.005315625 0.208719
51 1 -0.034846875 -0.00261666666667 -0.004134375 0.160751
52 1 -0.034846875 -0.00261666666667 -0.002953125 0.214005
53 1 -0.034846875 -0.00261666666667 -0.001771875 0.169846
54 1 -0.034846875 -0.00261666666667 -0.000590625 0.218146
55 1 -0.034846875 -0.00261666666667 0.000590625 0.176459
56 1 -0.034846875 -0.00261666666667 0.001771875 0.220233
57 1 -0.034846875 -0.00261666666667 0.002953125 0.177241
58 1 -0.034846875 -0.00261666666667 0.004134375 0.21381
59 1 -0.034846875 -0.00261666666667 0.005315625 0.170874
60 1 -0.034846875 -0.00261666666667 0.006496875 0.199145
61 1 -0.034846875 -0.00261666666667 0.007678125 0.154347
62 1 -0.034846875 -0.00261666666667 0.008859375 0.176646
63 1 -0.034846875 -0.00261666666667 0.010040625 0.131158
64 1 -0.034846875 -0.00261666666667 0.011221875 0.151957
65 1 -0.034846875 -0.00125 -0.011221875 0.121828
66 1 -0.034846875 -0.00125 -0.010040625 0.18912
67 1 -0.034846875 -0.00125 -0.008859375 0.138551
68 1 -0.034846875 -0.00125 -0.007678125 0.201621
69 1 -0.034846875 -0.00125 -0.006496875 0.150489
70 1 -0.034846875 -0.00125 -0.005315625 0.208719
71 1 -0.034846875 -0.00125 -0.004134375 0.160751
72 1 -0.034846875 -0.00125 -0.002953125 0.214005
73 1 -0.034846875 -0.00125 -0.001771875 0.169846
74 1 -0.034846875 -0.00125 -0.000590625 0.218146
75 1 -0.034846875 -0.00125 0.000590625 0.176459
76 1 -0.034846875 -0.00125 0.001771875 0.220233
77 1 -0.034846875 -0.00125 0.002953125 0.177241
78 1 -0.034846875 -0.00125 0.004134375 0.21381
79 1 -0.034846875 -0.00125 0.005315625 0.170874
80 1 -0.034846875 -0.00125 0.006496875 0.199145
81 1 -0.034846875 -0.00125 0.007678125 0.154347
82 1 -0.034846875 -0.00125 0.008859375 0.176646
83 1 -0.034846875 -0.00125 0.010040625 0.131158
84 1 -0.034846875 -0.00125 0.011221875 0.151957
85 1 -0.034846875 0.000116666666667 -0.011221875 0.121828
86 1 -0.034846875 0.000116666666667 -0.010040625 0.18912
87 1 -0.034846875 0.000116666666667 -0.008859375 0.138551
88 1 -0.034846875 0.000116666666667 -0.007678125 0.201621
89 1 -0.034846875 0.000116666666667 -0.006496875 0.150489
90 1 -0.034846875 0.000116666666667 -0.005315625 0.208719
91 1 -0.034846875 0.000116666666667 -0.004134375 0.160751
92 1 -0.034846875 0.000116666666667 -0.002953125 0.214005
93 1 -0.034846875 0.000116666666667 -0.001771875 0.169846
94 1 -0.034846875 0.000116666666667 -0.000590625 0.218146
95 1 -0.034846875 0.000116666666667 0.000590625 0.176459
96 1 -0.034846875 0.000116666666667 0.001771875 0.220233
97 1 -0.034846875 0.000116666666667 0.002953125 0.177241
98 1 -0.034846875 0.000116666666667 0.004134375 0.21381
99 1 -0.034846875 0.000116666666667 0.005315625 0.170874
100 1 -0.034846875 0.000116666666667 0.006496875 0.199145
101 1 -0.034846875 0.000116666666667 0.007678125 0.154347
102 1 -0.034846875 0.000116666666667 0.008859375 0.176646
103 1 -0.034846875 0.000116666666667 0.010040625 0.131158
104 1 -0.034846875 0.000116666666667 0.011221875 0.151957
105 1 -0.033665625 -0.00261666666667 -0.013584375 0.188825
106 1 -0.033665625 -0.00261666666667 -0.012403125 0.307579
107 1 -0.033665625 -0.00261666666667 -0.011221875 0.238567
108 1 -0.033665625 -0.00261666666667 -0.010040625 0.343084
109 1 -0.033665625 -0.00261666666667 -0.008859375 0.27467
110 1 -0.033665625 -0.00261666666667 -0.007678125 0.360855
111 1 -0.033665625 -0.00261666666667 -0.006496875 0.29903
112 1 -0.033665625 -0.00261666666667 -0.005315625 0.371626
113 1 -0.033665625 -0.00261666666667 -0.004134375 0.315289
114 1 -0.033665625 -0.00261666666667 -0.002953125 0.379472
115 1 -0.033665625 -0.00261666666667 -0.001771875 0.330218
116 1 -0.033665625 -0.00261666666667 -0.000590625 0.388314
117 1 -0.033665625 -0.00261666666667 0.000590625 0.340483
118 1 -0.033665625 -0.00261666666667 0.001771875 0.391177
119 1 -0.033665625 -0.00261666666667 0.002953125 0.342487
120 1 -0.033665625 -0.00261666666667 0.004134375 0.384697
121 1 -0.033665625 -0.00261666666667 0.005315625 0.32875
122 1 -0.033665625 -0.00261666666667 0.006496875 0.367026
123 1 -0.033665625 -0.00261666666667 0.007678125 0.299882
124 1 -0.033665625 -0.00261666666667 0.008859375 0.336142
125 1 -0.033665625 -0.00261666666667 0.010040625 0.255195
126 1 -0.033665625 -0.00261666666667 0.011221875 0.288357
127 1 -0.033665625 -0.00261666666667 0.012403125 0.201357
128 1 -0.033665625 -0.00261666666667 0.013584375 0.235101
129 1 -0.033665625 -0.00125 -0.013584375 0.188825
130 1 -0.033665625 -0.00125 -0.012403125 0.307579
131 1 -0.033665625 -0.00125 -0.011221875 0.238567
132 1 -0.033665625 -0.00125 -0.010040625 0.343084
133 1 -0.033665625 -0.00125 -0.008859375 0.27467
134 1 -0.033665625 -0.00125 -0.007678125 0.360855
135 1 -0.033665625 -0.00125 -0.006496875 0.29903
136 1 -0.033665625 -0.00125 -0.005315625 0.371626
137 1 -0.033665625 -0.00125 -0.004134375 0.315289
138 1 -0.033665625 -0.00125 -0.002953125 0.379472
139 1 -0.033665625 -0.00125 -0.001771875 0.330218
140 1 -0.033665625 -0.00125 -0.000590625 0.388314
141 1 -0.033665625 -0.00125 0.000590625 0.340483
142 1 -0.033665625 -0.00125 0.001771875 0.391177
143 1 -0.033665625 -0.00125 0.002953125 0.342487
144 1 -0.033665625 -0.00125 0.004134375 0.384697
145 1 -0.033665625 -0.00125 0.005315625 0.32875
146 1 -0.033665625 -0.00125 0.006496875 0.367026
147 1 -0.033665625 -0.00125 0.007678125 0.299882
148 1 -0.033665625 -0.00125 0.008859375 0.336142
149 1 -0.033665625 -0.00125 0.010040625 0.255195
150 1 -0.033665625 -0.00125 0.011221875 0.288357
151 1 -0.033665625 -0.00125 0.012403125 0.201357
152 1 -0.033665625 -0.00125 0.013584375 0.235101
153 1 -0.033665625 0.000116666666667 -0.013584375 0.188825
154 1 -0.033665625 0.000116666666667 -0.012403125 0.307579
155 1 -0.033665625 0.000116666666667 -0.011221875 0.238567
156 1 -0.033665625 0.000116666666667 -0.010040625 0.343084
157 1 -0.033665625 0.000116666666667 -0.008859375 0.27467
158 1 -0.033665625 0.000116666666667 -0.007678125 0.360855
159 1 -0.033665625 0.000116666666667 -0.006496875 0.29903
160 1 -0.033665625 0.000116666666667 -0.005315625 0.371626
161 1 -0.033665625 0.000116666666667 -0.004134375 0.315289
162 1 -0.033665625 0.000116666666667 -0.002953125 0.379472
163 1 -0.033665625 0.000116666666667 -0.001771875 0.330218
164 1 -0.033665625 0.000116666666667 -0.000590625 0.388314
165 1 -0.033665625 0.000116666666667 0.000590625 0.340483
166 1 -0.033665625 0.000116666666667 0.001771875 0.391177
167 1 -0.033665625 0.000116666666667 0.002953125 0.342487
168 1 -0.033665625 0.000116666666667 0.004134375 0.384697
169 1 -0.033665625 0.000116666666667 0.005315625 0.32875
170 1 -0.033665625 0.000116666666667 0.006496875 0.367026
171 1 -0.033665625 0.000116666666667 0.007678125 0.299882
172 1 -0.033665625 0.000116666666667 0.008859375 0.336142
173 1 -0.033665625 0.000116666666667 0.010040625 0.255195
174 1 -0.033665625 0.000116666666667 0.011221875 0.288357
175 1 -0.033665625 0.000116666666667 0.012403125 0.201357
176 1 -0.033665625 0.000116666666667 0.013584375 0.235101
177 1 -0.032484375 -0.00261666666667 -0.018309375 0.162103
178 1 -0.032484375 -0.00261666666667 -0.017128125 0.215993
179 1 -0.032484375 -0.00261666666667 -0.015946875 0.246258
180 1 -0.032484375 -0.00261666666667 -0.014765625 0.280073
181 1 -0.032484375 -0.00261666666667 -0.013584375 0.333092
182 1 -0.032484375 -0.00261666666667 -0.012403125 0.341915
183 1 -0.032484375 -0.00261666666667 -0.011221875 0.402793
184 1 -0.032484375 -0.00261666666667 -0.010040625 0.375314
185 1 -0.032484375 -0.00261666666667 -0.008859375 0.443446
186 1 -0.032484375 -0.00261666666667 -0.007678125 0.392412
187 1 -0.032484375 -0.00261666666667 -0.006496875 0.459941
188 1 -0.032484375 -0.00261666666667 -0.005315625 0.396248
189 1 -0.032484375 -0.00261666666667 -0.004134375 0.47147
190 1 -0.032484375 -0.00261666666667 -0.002953125 0.398546
191 1 -0.032484375 -0.00261666666667 -0.001771875 0.481208
192 1 -0.032484375 -0.00261666666667 -0.000590625 0.401441
193 1 -0.032484375 -0.00261666666667 0.000590625 0.48808
194 1 -0.032484375 -0.00261666666667 0.001771875 0.404128
195 1 -0.032484375 -0.00261666666667 0.002953125 0.491222
196 1 -0.032484375 -0.00261666666667 0.004134375 0.39661
197 1 -0.032484375 -0.00261666666667 0.005315625 0.487246
198 1 -0.032484375 -0.00261666666667 0.006496875 0.381167
199 1 -0.032484375 -0.00261666666667 0.007678125 0.460346
200 1 -0.032484375 -0.00261666666667 0.008859375 0.34536
201 1 -0.032484375 -0.00261666666667 0.010040625 0.409221
202 1 -0.032484375 -0.00261666666667 0.011221875 0.292806
203 1 -0.032484375 -0.00261666666667 0.012403125 0.333628
204 1 -0.032484375 -0.00261666666667 0.013584375 0.229515
205 1 -0.032484375 -0.00261666666667 0.014765625 0.24565
206 1 -0.032484375 -0.00261666666667 0.015946875 0.170777
207 1 -0.032484375 -0.00261666666667 0.017128125 0.166135
208 1 -0.032484375 -0.00261666666667 0.018309375 0.12316
209 1 -0.032484375 -0.00125 -0.018309375 0.162103
210 1 -0.032484375 -0.00125 -0.017128125 0.215993
211 1 -0.032484375 -0.00125 -0.015946875 0.246258
212 1 -0.032484375 -0.00125 -0.014765625 0.280073
213 1 -0.032484375 -0.00125 -0.013584375 0.333092
214 1 -0.032484375 -0.00125 -0.012403125 0.341915
215 1 -0.032484375 -0.00125 -0.011221875 0.402793
216 1 -0.032484375 -0.00125 -0.010040625 0.375314
217 1 -0.032484375 -0.00125 -0.008859375 0.443446
218 1 -0.032484375 -0.00125 -0.007678125 0.392412
219 1 -0.032484375 -0.00125 -0.006496875 0.459941
220 1 -0.032484375 -0.00125 -0.005315625 0.396248
221 1 -0.032484375 -0.00125 -0.004134375 0.47147
222 1 -0.032484375 -0.00125 -0.002953125 0.398546
223 1 -0.032484375 -0.00125 -0.001771875 0.481208
224 1 -0.032484375 -0.00125 -0.000590625 0.401441
225 1 -0.032484375 -0.00125 0.000590625 0.48808
226 1 -0.032484375 -0.00125 0.001771875 0.404128
227 1 -0.032484375 -0.00125 0.002953125 0.491222
228 1 -0.032484375 -0.00125 0.004134375 0.39661
229 1 -0.032484375 -0.00125 0.005315625 0.487246
230 1 -0.032484375 -0.00125 0.006496875 0.381167
231 1 -0.032484375 -0.00125 0.007678125 0.460346
232 1 -0.032484375 -0.00125 0.008859375 0.34536
233 1 -0.032484375 -0.00125 0.010040625 0.409221
234 1 -0.032484375 -0.00125 0.011221875 0.292806
235 1 -0.032484375 -0.00125 0.012403125 0.333628
236 1 -0.032484375 -0.00125 0.013584375 0.229515
237 1 -0.032484375 -0.00125 0.014765625 0.24565
238 1 -0.032484375 -0.00125 0.015946875 0.170777
239 1 -0.032484375 -0.00125 0.017128125 0.166135
240 1 -0.032484375 -0.00125 0.018309375 0.12316
241 1 -0.032484375 0.000116666666667 -0.018309375 0.162103
242 1 -0.032484375 0.000116666666667 -0.017128125 0.215993
243 1 -0.032484375 0.000116666666667 -0.015946875 0.246258
244 1 -0.032484375 0.000116666666667 -0.014765625 0.280073
245 1 -0.032484375 0.000116666666667 -0.013584375 0.333092
246 1 -0.032484375 0.000116666666667 -0.012403125 0.341915
247 1 -0.032484375 0.000116666666667 -0.011221875 0.402793
248 1 -0.032484375 0.000116666666667 -0.010040625 0.375314
249 1 -0.032484375 0.000116666666667 -0.008859375 0.443446
250 1 -0.032484375 0.000116666666667 -0.007678125 0.392412
251 1 -0.032484375 0.000116666666667 -0.006496875 0.459941
252 1 -0.032484375 0.000116666666667 -0.005315625 0.396248
253 1 -0.032484375 0.000116666666667 -0.004134375 0.47147
254 1 -0.032484375 0.000116666666667 -0.002953125 0.398546
255 1 -0.032484375 0.000116666666667 -0.001771875 0.481208
256 1 -0.032484375 0.000116666666667 -0.000590625 0.401441
257 1 -0.032484375 0.000116666666667 0.000590625 0.48808
258 1 -0.032484375 0.000116666666667 0.001771875 0.404128
259 1 -0.032484375 0.000116666666667 0.002953125 0.491222
260 1 -0.032484375 0.000116666666667 0.004134375 0.39661
261 1 -0.032484375 0.000116666666667 0.005315625 0.487246
262 1 -0.032484375 0.000116666666667 0.006496875 0.381167
263 1 -0.032484375 0.000116666666667 0.007678125 0.460346
264 1 -0.032484375 0.000116666666667 0.008859375 0.34536
265 1 -0.032484375 0.000116666666667 0.010040625 0.409221
266 1 -0.032484375 0.000116666666667 0.011221875 0.292806
267 1 -0.032484375 0.000116666666667 0.012403125 0.333628
268 1 -0.032484375 0.000116666666667 0.013584375 0.229515
269 1 -0.032484375 0.000116666666667 0.014765625 0.24565
270 1 -0.032484375 0.000116666666667 0.015946875 0.170777
271 1 -0.032484375 0.000116666666667 0.017128125 0.166135
272 1 -0.032484375 0.000116666666667 0.018309375 0.12316
273 1 -0.031303125 -0.00261666666667 -0.019490625 0.279703
274 1 -0.031303125 -0.00261666666667 -0.018309375 0.259669
275 1 -0.031303125 -0.00261666666667 -0.017128125 0.375273
276 1 -0.031303125 -0.00261666666667 -0.015946875 0.382094
277 1 -0.031303125 -0.00261666666667 -0.014765625 0.461324
278 1 -0.031303125 -0.00261666666667 -0.013584375 0.486048
279 1 -0.031303125 -0.00261666666667 -0.012403125 0.518727
280 1 -0.031303125 -0.00261666666667 -0.011221875 0.555109
281 1 -0.031303125 -0.00261666666667 -0.010040625 0.548204
282 1 -0.031303125 -0.00261666666667 -0.008859375 0.588098
283 1 -0.031303125 -0.00261666666667 -0.007678125 0.558084
284 1 -0.031303125 -0.00261666666667 -0.006496875 0.601182
285 1 -0.031303125 -0.00261666666667 -0.005315625 0.557785
286 1 -0.031303125 -0.00261666666667 -0.004134375 0.600392
287 1 -0.031303125 -0.00261666666667 -0.002953125 0.555749
288 1 -0.031303125 -0.00261666666667 -0.001771875 0.600839
289 1 -0.031303125 -0.00261666666667 -0.000590625 0.558955
290 1 -0.031303125 -0.00261666666667 0.000590625 0.603783
291 1 -0.031303125 -0.00261666666667 0.001771875 0.561204
292 1 -0.031303125 -0.00261666666667 0.002953125 0.609803
293 1 -0.031303125 -0.00261666666667 0.004134375 0.562177
294 1 -0.031303125 -0.00261666666667 0.005315625 0.607637
295 1 -0.031303125 -0.00261666666667 0.006496875 0.554094
296 1 -0.031303125 -0.00261666666667 0.007678125 0.589866
297 1 -0.031303125 -0.00261666666667 0.008859375 0.526985
298 1 -0.031303125 -0.00261666666667 0.010040625 0.546164
299 1 -0.031303125 -0.00261666666667 0.011221875 0.476533
300 1 -0.031303125 -0.00261666666667 0.012403125 0.472492
301 1 -0.031303125 -0.00261666666667 0.013584375 0.407729
302 1 -0.031303125 -0.00261666666667 0.014765625 0.371579
303 1 -0.031303125 -0.00261666666667 0.015946875 0.322934
304 1 -0.031303125 -0.00261666666667 0.017128125 0.264934
305 1 -0.031303125 -0.00261666666667 0.018309375 0.24137
306 1 -0.031303125 -0.00261666666667 0.019490625 0.178052
307 1 -0.031303125 -0.00125 -0.019490625 0.279703
308 1 -0.031303125 -0.00125 -0.018309375 0.259669
309 1 -0.031303125 -0.00125 -0.017128125 0.375273
310 1 -0.031303125 -0.00125 -0.015946875 0.382094
311 1 -0.031303125 -0.00125 -0.014765625 0.461324
312 1 -0.031303125 -0.00125 -0.013584375 0.486048
313 1 -0.031303125 -0.00125 -0.012403125 0.518727
314 1 -0.031303125 -0.00125 -0.011221875 0.555109
315 1 -0.031303125 -0.00125 -0.010040625 0.548204
316 1 -0.031303125 -0.00125 -0.008859375 0.588098
317 1 -0.031303125 -0.00125 -0.007678125 0.558084
318 1 -0.031303125 -0.00125 -0.006496875 0.601182
319 1 -0.031303125 -0.00125 -0.005315625 0.557785
320 1 -0.031303125 -0.00125 -0.004134375 0.600392
321 1 -0.031303125 -0.00125 -0.002953125 0.555749
322 1 -0.031303125 -0.00125 -0.001771875 0.600839
323 1 -0.031303125 -0.00125 -0.000590625 0.558955
324 1 -0.031303125 -0.00125 0.000590625 0.603783
325 1 -0.031303125 -0.00125 0.001771875 0.561204
326 1 -0.031303125 -0.00125 0.002953125 0.609803
327 1 -0.031303125 -0.00125 0.004134375 0.562177
328 1 -0.031303125 -0.00125 0.005315625 0.607637
329 1 -0.031303125 -0.00125 0.006496875 0.554094
330 1 -0.031303125 -0.00125 0.007678125 0.589866
331 1 -0.031303125 -0.00125 0.008859375 0.526985
332 1 -0.031303125 -0.00125 0.010040625 0.546164
333 1 -0.031303125 -0.00125 0.011221875 0.476533
334 1 -0.031303125 -0.00125 0.012403125 0.472492
335 1 -0.031303125 -0.00125 0.013584375 0.407729
336 1 -0.031303125 -0.00125 0.014765625 0.371579
337 1 -0.031303125 -0.00125 0.015946875 0.322934
338 1 -0.031303125 -0.00125 0.017128125 0.264934
339 1 -0.031303125 -0.00125 0.018309375 0.24137
340 1 -0.031303125 -0.00125 0.019490625 0.178052
341 1 -0.031303125 0.000116666666667 -0.019490625 0.279703
342 1 -0.031303125 0.000116666666667 -0.018309375 0.259669
343 1 -0.031303125 0.000116666666667 -0.017128125 0.375273
344 1 -0.031303125 0.000116666666667 -0.015946875 0.382094
345 1 -0.031303125 0.000116666666667 -0.014765625 0.461324
346 1 -0.031303125 0.000116666666667 -0.013584375 0.486048
347 1 -0.031303125 0.000116666666667 -0.012403125 0.518727
348 1 -0.031303125 0.000116666666667 -0.011221875 0.555109
349 1 -0.031303125 0.000116666666667 -0.010040625 0.548204
350 1 -0.031303125 0.000116666666667 -0.008859375 0.588098
351 1 -0.031303125 0.000116666666667 -0.007678125 0.558084
352 1 -0.031303125 0.000116666666667 -0.006496875 0.601182
353 1 -0.031303125 0.000116666666667 -0.005315625 0.557785
354 1 -0.031303125 0.000116666666667 -0.004134375 0.600392
355 1 -0.031303125 0.000116666666667 -0.002953125 0.555749
356 1 -0.031303125 0.000116666666667 -0.001771875 0.600839
357 1 -0.031303125 0.000116666666667 -0.000590625 0.558955
358 1 -0.031303125 0.000116666666667 0.000590625 0.603783
359 1 -0.031303125 0.000116666666667 0.001771875 0.561204
360 1 -0.031303125 0.000116666666667 0.002953125 0.609803
361 1 -0.031303125 0.000116666666667 0.004134375 0.562177
362 1 -0.031303125 0.000116666666667 0.005315625 0.607637
363 1 -0.031303125 0.000116666666667 0.006496875 0.554094
364 1 -0.031303125 0.000116666666667 0.007678125 0.589866
365 1 -0.031303125 0.000116666666667 0.008859375 0.526985
366 1 -0.031303125 0.000116666666667 0.010040625 0.546164
367 1 -0.031303125 0.000116666666667 0.011221875 0.476533
368 1 -0.031303125 0.000116666666667 0.012403125 0.472492
369 1 -0.031303125 0.000116666666667 0.013584375 0.407729
370 1 -0.031303125 0.000116666666667 0.014765625 0.371579
371 1 -0.031303125 0.000116666666667 0.015946875 0.322934
372 1 -0.031303125 0.000116666666667 0.017128125 0.264934
373 1 -0.031303125 0.000116666666667 0.018309375 0.24137
374 1 -0.031303125 0.000116666666667 0.019490625 0.178052
375 1 -0.030121875 -0.00261666666667 -0.020671875 0.228679
376 1 -0.030121875 -0.00261666666667 -0.019490625 0.297744
377 1 -0.030121875 -0.00261666666667 -0.018309375 0.356304
378 1 -0.030121875 -0.00261666666667 -0.017128125 0.411342
379 1 -0.030121875 -0.00261666666667 -0.015946875 0.477838
380 1 -0.030121875 -0.00261666666667 -0.014765625 0.492551
381 1 -0.030121875 -0.00261666666667 -0.013584375 0.564698
382 1 -0.030121875 -0.00261666666667 -0.012403125 0.538003
383 1 -0.030121875 -0.00261666666667 -0.011221875 0.608023
384 1 -0.030121875 -0.00261666666667 -0.010040625 0.552972
385 1 -0.030121875 -0.00261666666667 -0.008859375 0.61881
386 1 -0.030121875 -0.00261666666667 -0.007678125 0.555436
387 1 -0.030121875 -0.00261666666667 -0.006496875 0.610076
388 1 -0.030121875 -0.00261666666667 -0.005315625 0.54983
389 1 -0.030121875 -0.00261666666667 -0.004134375 0.597021
390 1 -0.030121875 -0.00261666666667 -0.002953125 0.544821
391 1 -0.030121875 -0.00261666666667 -0.001771875 0.589274
392 1 -0.030121875 -0.00261666666667 -0.000590625 0.544616
393 1 -0.030121875 -0.00261666666667 0.000590625 0.589804
394 1 -0.030121875 -0.00261666666667 0.001771875 0.549156
395 1 -0.030121875 -0.00261666666667 0.002953125 0.599433
396 1 -0.030121875 -0.00261666666667 0.004134375 0.549045
397 1 -0.030121875 -0.00261666666667 0.005315625 0.614668
398 1 -0.030121875 -0.00261666666667 0.006496875 0.543663
399 1 -0.030121875 -0.00261666666667 0.007678125 0.617029
400 1 -0.030121875 -0.00261666666667 0.008859375 0.518372
401 1 -0.030121875 -0.00261666666667 0.010040625 0.600926
402 1 -0.030121875 -0.00261666666667 0.011221875 0.477988
403 1 -0.030121875 -0.00261666666667 0.012403125 0.55213
404 1 -0.030121875 -0.00261666666667 0.013584375 0.413105
405 1 -0.030121875 -0.00261666666667 0.014765625 0.457059
406 1 -0.030121875 -0.00261666666667 0.015946875 0.320206
407 1 -0.030121875 -0.00261666666667 0.017128125 0.341173
408 1 -0.030121875 -0.00261666666667 0.018309375 0.230805
409 1 -0.030121875 -0.00261666666667 0.019490625 0.23199
410 1 -0.030121875 -0.00261666666667 0.020671875 0.168036
411 1 -0.030121875 -0.00125 -0.020671875 0.228679
412 1 -0.030121875 -0.00125 -0.019490625 0.297744
413 1 -0.030121875 -0.00125 -0.018309375 0.356304
414 1 -0.030121875 -0.00125 -0.017128125 0.411342
415 1 -0.030121875 -0.00125 -0.015946875 0.477838
416 1 -0.030121875 -0.00125 -0.014765625 0.492551
417 1 -0.030121875 -0.00125 -0.013584375 0.564698
418 1 -0.030121875 -0.00125 -0.012403125 0.538003
419 1 -0.030121875 -0.00125 -0.011221875 0.608023
420 1 -0.030121875 -0.00125 -0.010040625 0.552972
421 1 -0.030121875 -0.00125 -0.008859375 0.61881
422 1 -0.030121875 -0.00125 -0.007678125 0.555436
423 1 -0.030121875 -0.00125 -0.006496875 0.610076
424 1 -0.030121875 -0.00125 -0.005315625 0.54983
425 1 -0.030121875 -0.00125 -0.004134375 0.597021
426 1 -0.030121875 -0.00125 -0.002953125 0.544821
427 1 -0.030121875 -0.00125 -0.001771875 0.589274
428 1 -0.030121875 -0.00125 -0.000590625 0.544616
429 1 -0.030121875 -0.00125 0.000590625 0.589804
430 1 -0.030121875 -0.00125 0.001771875 0.549156
431 1 -0.030121875 -0.00125 0.002953125 0.599433
432 1 -0.030121875 -0.00125 0.004134375 0.549045
433 1 -0.030121875 -0.00125 0.005315625 0.614668
434 1 -0.030121875 -0.00125 0.006496875 0.543663
435 1 -0.030121875 -0.00125 0.007678125 0.617029
436 1 -0.030121875 -0.00125 0.008859375 0.518372
437 1 -0.030121875 -0.00125 0.010040625 0.600926
438 1 -0.030121875 -0.00125 0.011221875 0.477988
439 1 -0.030121875 -0.00125 0.012403125 0.55213
440 1 -0.030121875 -0.00125 0.013584375 0.413105
441 1 -0.030121875 -0.00125 0.014765625 0.457059
442 1 -0.030121875 -0.00125 0.015946875 0.320206
443 1 -0.030121875 -0.00125 0.017128125 0.341173
444 1 -0.030121875 -0.00125 0.018309375 0.230805
445 1 -0.030121875 -0.00125 0.019490625 0.23199
446 1 -0.030121875 -0.00125 0.020671875 0.168036
447 1 -0.030121875 0.000116666666667 -0.020671875 0.228679
448 1 -0.030121875 0.000116666666667 -0.019490625 0.297744
449 1 -0.030121875 0.000116666666667 -0.018309375 0.356304
450 1 -0.030121875 0.000116666666667 -0.017128125 0.411342
451 1 -0.030121875 0.000116666666667 -0.015946875 0.477838
452 1 -0.030121875 0.000116666666667 -0.014765625 0.492551
453 1 -0.030121875 0.000116666666667 -0.013584375 0.564698
454 1 -0.030121875 0.000116666666667 -0.012403125 0.538003
455 1 -0.030121875 0.000116666666667 -0.011221875 0.608023
456 1 -0.030121875 0.000116666666667 -0.010040625 0.552972
457 1 -0.030121875 0.000116666666667 -0.008859375 0.61881
458 1 -0.030121875 0.000116666666667 -0.007678125 0.555436
459 1 -0.030121875 0.000116666666667 -0.006496875 0.610076
460 1 -0.030121875 0.000116666666667 -0.005315625 0.54983
461 1 -0.030121875 0.000116666666667 -0.004134375 0.597021
462 1 -0.030121875 0.000116666666667 -0.002953125 0.544821
463 1 -0.030121875 0.000116666666667 -0.001771875 0.589274
464 1 -0.030121875 0.000116666666667 -0.000590625 0.544616
465 1 -0.030121875 0.000116666666667 0.000590625 0.589804
466 1 -0.030121875 0.000116666666667 0.001771875 0.549156
467 1 -0.030121875 0.000116666666667 0.002953125 0.599433
468 1 -0.030121875 0.000116666666667 0.004134375 0.549045
469 1 -0.030121875 0.000116666666667 0.005315625 0.614668
470 1 -0.030121875 0.000116666666667 0.006496875 0.543663
471 1 -0.030121875 0.000116666666667 0.007678125 0.617029
472 1 -0.030121875 0.000116666666667 0.008859375 0.518372
473 1 -0.030121875 0.000116666666667 0.010040625 0.600926
474 1 -0.030121875 0.000116666666667 0.011221875 0.477988
475 1 -0.030121875 0.000116666666667 0.012403125 0.55213
476 1 -0.030121875 0.000116666666667 0.013584375 0.413105
477 1 -0.030121875 0.000116666666667 0.014765625 0.457059
478 1 -0.030121875 0.000116666666667 0.015946875 0.320206
479 1 -0.030121875 0.000116666666667 0.017128125 0.341173
480 1 -0.030121875 0.000116666666667 0.018309375 0.230805
481 1 -0.030121875 0.000116666666667 0.019490625 0.23199
482 1 -0.030121875 0.000116666666667 0.020671875 0.168036
483 1 -0.028940625 -0.00261666666667 -0.021853125 0.297509
484 1 -0.028940625 -0.00261666666667 -0.020671875 0.283414
485 1 -0.028940625 -0.00261666666667 -0.019490625 0.414045
486 1 -0.028940625 -0.00261666666667 -0.018309375 0.432241
487 1 -0.028940625 -0.00261666666667 -0.017128125 0.513643
488 1 -0.028940625 -0.00261666666667 -0.015946875 0.555632
489 1 -0.028940625 -0.00261666666667 -0.014765625 0.573863
490 1 -0.028940625 -0.00261666666667 -0.013584375 0.613049
491 1 -0.028940625 -0.00261666666667 -0.012403125 0.592345
492 1 -0.028940625 -0.00261666666667 -0.011221875 0.624719
493 1 -0.028940625 -0.00261666666667 -0.010040625 0.596609
494 1 -0.028940625 -0.00261666666667 -0.008859375 0.618339
495 1 -0.028940625 -0.00261666666667 -0.007678125 0.589172
496 1 -0.028940625 -0.00261666666667 -0.006496875 0.608158
497 1 -0.028940625 -0.00261666666667 -0.005315625 0.582397
498 1 -0.028940625 -0.00261666666667 -0.004134375 0.596532
499 1 -0.028940625 -0.00261666666667 -0.002953125 0.576114
500 1 -0.028940625 -0.00261666666667 -0.001771875 0.59156
501 1 -0.028940625 -0.00261666666667 -0.000590625 0.578484
502 1 -0.028940625 -0.00261666666667 0.000590625 0.593981
503 1 -0.028940625 -0.00261666666667 0.001771875 0.582456
504 1 -0.028940625 -0.00261666666667 0.002953125 0.604009
505 1 -0.028940625 -0.00261666666667 0.004134375 0.587715
506 1 -0.028940625 -0.00261666666667 0.005315625 0.61351
507 1 -0.028940625 -0.00261666666667 0.006496875 0.587923
508 1 -0.028940625 -0.00261666666667 0.007678125 0.618695
509 1 -0.028940625 -0.00261666666667 0.008859375 0.578347
510 1 -0.028940625 -0.00261666666667 0.010040625 0.61588
511 1 -0.028940625 -0.00261666666667 0.011221875 0.556072
512 1 -0.028940625 -0.00261666666667 0.012403125 0.591695
513 1 -0.028940625 -0.00261666666667 0.013584375 0.51469
514 1 -0.028940625 -0.00261666666667 0.014765625 0.526945
515 1 -0.028940625 -0.00261666666667 0.015946875 0.437363
516 1 -0.028940625 -0.00261666666667 0.017128125 0.420742
517 1 -0.028940625 -0.00261666666667 0.018309375 0.351451
518 1 -0.028940625 -0.00261666666667 0.019490625 0.311379
519 1 -0.028940625 -0.00261666666667 0.020671875 0.273524
520 1 -0.028940625 -0.00261666666667 0.021853125 0.22543
521 1 -0.028940625 -0.00125 -0.021853125 0.297509
522 1 -0.028940625 -0.00125 -0.020671875 0.283414
523 1 -0.028940625 -0.00125 -0.019490625 0.414045
524 1 -0.028940625 -0.00125 -0.018309375 0.432241
525 1 -0.028940625 -0.00125 -0.017128125 0.513643
526 1 -0.028940625 -0.00125 -0.015946875 0.555632
527 1 -0.028940625 -0.00125 -0.014765625 0.573863
528 1 -0.028940625 -0.00125 -0.013584375 0.613049
529 1 -0.028940625 -0.00125 -0.012403125 0.592345
530 1 -0.028940625 -0.00125 -0.011221875 0.624719
531 1 -0.028940625 -0.00125 -0.010040625 0.596609
532 1 -0.028940625 -0.00125 -0.008859375 0.618339
533 1 -0.028940625 -0.00125 -0.007678125 0.589172
534 1 -0.028940625 -0.00125 -0.006496875 0.608158
535 1 -0.028940625 -0.00125 -0.005315625 0.582397
536 1 -0.028940625 -0.00125 -0.004134375 0.596532
537 1 -0.028940625 -0.00125 -0.002953125 0.576114