ITEM: TIMESTEP
0
ITEM: NUMBER OF ATOMS
9240
ITEM: BOX BOUNDS ss ss ss
-3.7007399999999996e-02 3.7007399999999996e-02
-2.0002499999999999e-03 2.5000000000000004e-07
-3.7007399999999996e-02 3.7007399999999996e-02
ITEM: ATOMS id type x y z c_1
0 1 -0.037209375 -0.00261666666667 -0.000590625 0.27677
1 1 -0.037209375 -0.00125 -0.000590625 0.27677
2 1 -0.037209375 0.000116666666667 -0.000590625 0.27677
3 1 -0.036028125 -0.00261666666667 -0.007678125 0.236414
4 1 -0.036028125 -0.00261666666667 -0.006496875 0.129656
5 1 -0.036028125 -0.00261666666667 -0.005315625 0.246037
6 1 -0.036028125 -0.00261666666667 -0.004134375 0.140229
7 1 -0.036028125 -0.00261666666667 -0.002953125 0.257777
8 1 -0.036028125 -0.00261666666667 -0.001771875 0.153984
9 1 -0.036028125 -0.00261666666667 -0.000590625 0.273604
10 1 -0.036028125 -0.00261666666667 0.000590625 0.167884
11 1 -0.036028125 -0.00261666666667 0.001771875 0.287263
12 1 -0.036028125 -0.00261666666667 0.002953125 0.177699
13 1 -0.036028125 -0.00261666666667 0.004134375 0.293261
14 1 -0.036028125 -0.00261666666667 0.005315625 0.176415
15 1 -0.036028125 -0.00261666666667 0.006496875 0.285139
16 1 -0.036028125 -0.00261666666667 0.007678125 0.163639
17 1 -0.036028125 -0.00125 -0.007678125 0.236414
18 1 -0.036028125 -0.00125 -0.006496875 0.129656
19 1 -0.036028125 -0.00125 -0.005315625 0.246037
20 1 -0.036028125 -0.00125 -0.004134375 0.140229
21 1 -0.036028125 -0.00125 -0.002953125 0.257777
22 1 -0.036028125 -0.00125 -0.001771875 0.153984
23 1 -0.036028125 -0.00125 -0.000590625 0.273604
24 1 -0.036028125 -0.00125 0.000590625 0.167884
25 1 -0.036028125 -0.00125 0.001771875 0.287263
26 1 -0.036028125 -0.00125 0.002953125 0.177699
27 1 -0.036028125 -0.00125 0.004134375 0.293261
28 1 -0.036028125 -0.00125 0.005315625 0.176415
29 1 -0.036028125 -0.00125 0.006496875 0.285139
30 1 -0.036028125 -0.00125 0.007678125 0.163639
31 1 -0.036028125 0.000116666666667 -0.007678125 0.236414
32 1 -0.036028125 0.000116666666667 -0.006496875 0.129656
33 1 -0.036028125 0.000116666666667 -0.005315625 0.246037
34 1 -0.036028125 0.000116666666667 -0.004134375 0.140229
35 1 -0.036028125 0.000116666666667 -0.002953125 0.257777
36 1 -0.036028125 0.000116666666667 -0.001771875 0.153984
37 1 -0.036028125 0.000116666666667 -0.000590625 0.273604
38 1 -0.036028125 0.000116666666667 0.000590625 0.167884
39 1 -0.036028125 0.000116666666667 0.001771875 0.287263
40 1 -0.036028125 0.000116666666667 0.002953125 0.177699
41 1 -0.036028125 0.000116666666667 0.004134375 0.293261
42 1 -0.036028125 0.000116666666667 0.005315625 0.176415
43 1 -0.036028125 0.000116666666667 0.006496875 0.285139
44 1 -0.036028125 0.000116666666667 0.007678125 0.163639
45 1 -0.034846875 -0.00261666666667 -0.011221875 0.114973
46 1 -0.034846875 -0.00261666666667 -0.010040625 0.149076
47 1 -0.034846875 -0.00261666666667 -0.008859375 0.12689
48 1 -0.034846875 -0.00261666666667 -0.007678125 0.15871
49 1 -0.034846875 -0.00261666666667 -0.006496875 0.137759
50 1 -0.034846875 -0.00261666666667 -0.005315625 0.168919
51 1 -0.034846875 -0.00261666666667 -0.004134375 0.15155
52 1 -0.034846875 -0.00261666666667 -0.002953125 0.181489
53 1 -0.034846875 -0.00261666666667 -0.001771875 0.170102
54 1 -0.034846875 -0.00261666666667 -0.000590625 0.196654
55 1 -0.034846875 -0.00261666666667 0.000590625 0.190812
56 1 -0.034846875 -0.00261666666667 0.001771875 0.209858
57 1 -0.034846875 -0.00261666666667 0.002953125 0.207148
58 1 -0.034846875 -0.00261666666667 0.004134375 0.213241
59 1 -0.034846875 -0.00261666666667 0.005315625 0.213498
60 1 -0.034846875 -0.00261666666667 0.006496875 0.204912
61 1 -0.034846875 -0.00261666666667 0.007678125 0.200364
62 1 -0.034846875 -0.00261666666667 0.008859375 0.18068
63 1 -0.034846875 -0.00261666666667 0.010040625 0.171215
64 1 -0.034846875 -0.00261666666667 0.011221875 0.150109
65 1 -0.034846875 -0.00125 -0.011221875 0.114973
66 1 -0.034846875 -0.00125 -0.010040625 0.149076
67 1 -0.034846875 -0.00125 -0.008859375 0.12689
68 1 -0.034846875 -0.00125 -0.007678125 0.15871
69 1 -0.034846875 -0.00125 -0.006496875 0.137759
70 1 -0.034846875 -0.00125 -0.005315625 0.168919
71 1 -0.034846875 -0.00125 -0.004134375 0.15155
72 1 -0.034846875 -0.00125 -0.002953125 0.181489
73 1 -0.034846875 -0.00125 -0.001771875 0.170102
74 1 -0.034846875 -0.00125 -0.000590625 0.196654
75 1 -0.034846875 -0.00125 0.000590625 0.190812
76 1 -0.034846875 -0.00125 0.001771875 0.209858
77 1 -0.034846875 -0.00125 0.002953125 0.207148
78 1 -0.034846875 -0.00125 0.004134375 0.213241
79 1 -0.034846875 -0.00125 0.005315625 0.213498
80 1 -0.034846875 -0.00125 0.006496875 0.204912
81 1 -0.034846875 -0.00125 0.007678125 0.200364
82 1 -0.034846875 -0.00125 0.008859375 0.18068
83 1 -0.034846875 -0.00125 0.010040625 0.171215
84 1 -0.034846875 -0.00125 0.011221875 0.150109
85 1 -0.034846875 0.000116666666667 -0.011221875 0.114973
86 1 -0.034846875 0.000116666666667 -0.010040625 0.149076
87 1 -0.034846875 0.000116666666667 -0.008859375 0.12689
88 1 -0.034846875 0.000116666666667 -0.007678125 0.15871
89 1 -0.034846875 0.000116666666667 -0.006496875 0.137759
90 1 -0.034846875 0.000116666666667 -0.005315625 0.168919
91 1 -0.034846875 0.000116666666667 -0.004134375 0.15155
92 1 -0.034846875 0.000116666666667 -0.002953125 0.181489
93 1 -0.034846875 0.000116666666667 -0.001771875 0.170102
94 1 -0.034846875 0.000116666666667 -0.000590625 0.196654
95 1 -0.034846875 0.000116666666667 0.000590625 0.190812
96 1 -0.034846875 0.000116666666667 0.001771875 0.209858
97 1 -0.034846875 0.000116666666667 0.002953125 0.207148
98 1 -0.034846875 0.000116666666667 0.004134375 0.213241
99 1 -0.034846875 0.000116666666667 0.005315625 0.213498
100 1 -0.034846875 0.000116666666667 0.006496875 0.204912
101 1 -0.034846875 0.000116666666667 0.007678125 0.200364
102 1 -0.034846875 0.000116666666667 0.008859375 0.18068
103 1 -0.034846875 0.000116666666667 0.010040625 0.171215
104 1 -0.034846875 0.000116666666667 0.011221875 0.150109
105 1 -0.033665625 -0.00261666666667 -0.013584375 0.151892
106 1 -0.033665625 -0.00261666666667 -0.012403125 0.277664
107 1 -0.033665625 -0.00261666666667 -0.011221875 0.18567
108 1 -0.033665625 -0.00261666666667 -0.010040625 0.303228
109 1 -0.033665625 -0.00261666666667 -0.008859375 0.21204
110 1 -0.033665625 -0.00261666666667 -0.007678125 0.319895
111 1 -0.033665625 -0.00261666666667 -0.006496875 0.235346
112 1 -0.033665625 -0.00261666666667 -0.005315625 0.337622
113 1 -0.033665625 -0.00261666666667 -0.004134375 0.25982
114 1 -0.033665625 -0.00261666666667 -0.002953125 0.358408
115 1 -0.033665625 -0.00261666666667 -0.001771875 0.290054
116 1 -0.033665625 -0.00261666666667 -0.000590625 0.38514
117 1 -0.033665625 -0.00261666666667 0.000590625 0.319821
118 1 -0.033665625 -0.00261666666667 0.001771875 0.407579
119 1 -0.033665625 -0.00261666666667 0.002953125 0.341128
120 1 -0.033665625 -0.00261666666667 0.004134375 0.418927
121 1 -0.033665625 -0.00261666666667 0.005315625 0.341672
122 1 -0.033665625 -0.00261666666667 0.006496875 0.408758
123 1 -0.033665625 -0.00261666666667 0.007678125 0.318169
124 1 -0.033665625 -0.00261666666667 0.008859375 0.376252
125 1 -0.033665625 -0.00261666666667 0.010040625 0.268403
126 1 -0.033665625 -0.00261666666667 0.011221875 0.32248
127 1 -0.033665625 -0.00261666666667 0.012403125 0.20491
128 1 -0.033665625 -0.00261666666667 0.013584375 0.257972
129 1 -0.033665625 -0.00125 -0.013584375 0.151892
130 1 -0.033665625 -0.00125 -0.012403125 0.277664
131 1 -0.033665625 -0.00125 -0.011221875 0.18567
132 1 -0.033665625 -0.00125 -0.010040625 0.303228
133 1 -0.033665625 -0.00125 -0.008859375 0.21204
134 1 -0.033665625 -0.00125 -0.007678125 0.319895
135 1 -0.033665625 -0.00125 -0.006496875 0.235346
136 1 -0.033665625 -0.00125 -0.005315625 0.337622
137 1 -0.033665625 -0.00125 -0.004134375 0.25982
138 1 -0.033665625 -0.00125 -0.002953125 0.358408
139 1 -0.033665625 -0.00125 -0.001771875 0.290054
140 1 -0.033665625 -0.00125 -0.000590625 0.38514
141 1 -0.033665625 -0.00125 0.000590625 0.319821
142 1 -0.033665625 -0.00125 0.001771875 0.407579
143 1 -0.033665625 -0.00125 0.002953125 0.341128
144 1 -0.033665625 -0.00125 0.004134375 0.418927
145 1 -0.033665625 -0.00125 0.005315625 0.341672
146 1 -0.033665625 -0.00125 0.006496875 0.408758
147 1 -0.033665625 -0.00125 0.007678125 0.318169
148 1 -0.033665625 -0.00125 0.008859375 0.376252
149 1 -0.033665625 -0.00125 0.010040625 0.268403
150 1 -0.033665625 -0.00125 0.011221875 0.32248
151 1 -0.033665625 -0.00125 0.012403125 0.20491
152 1 -0.033665625 -0.00125 0.013584375 0.257972
153 1 -0.033665625 0.000116666666667 -0.013584375 0.151892
154 1 -0.033665625 0.000116666666667 -0.012403125 0.277664
155 1 -0.033665625 0.000116666666667 -0.011221875 0.18567
156 1 -0.033665625 0.000116666666667 -0.010040625 0.303228
157 1 -0.033665625 0.000116666666667 -0.008859375 0.21204
158 1 -0.033665625 0.000116666666667 -0.007678125 0.319895
159 1 -0.033665625 0.000116666666667 -0.006496875 0.235346
160 1 -0.033665625 0.000116666666667 -0.005315625 0.337622
161 1 -0.033665625 0.000116666666667 -0.004134375 0.25982
162 1 -0.033665625 0.000116666666667 -0.002953125 0.358408
163 1 -0.033665625 0.000116666666667 -0.001771875 0.290054
164 1 -0.033665625 0.000116666666667 -0.000590625 0.38514
165 1 -0.033665625 0.000116666666667 0.000590625 0.319821
166 1 -0.033665625 0.000116666666667 0.001771875 0.407579
167 1 -0.033665625 0.000116666666667 0.002953125 0.341128
168 1 -0.033665625 0.000116666666667 0.004134375 0.418927
169 1 -0.033665625 0.000116666666667 0.005315625 0.341672
170 1 -0.033665625 0.000116666666667 0.006496875 0.408758
171 1 -0.033665625 0.000116666666667 0.007678125 0.318169
172 1 -0.033665625 0.000116666666667 0.008859375 0.376252
173 1 -0.033665625 0.000116666666667 0.010040625 0.268403
174 1 -0.033665625 0.000116666666667 0.011221875 0.32248
175 1 -0.033665625 0.000116666666667 0.012403125 0.20491
176 1 -0.033665625 0.000116666666667 0.013584375 0.257972
177 1 -0.032484375 -0.00261666666667 -0.018309375 0.108521
178 1 -0.032484375 -0.00261666666667 -0.017128125 0.158688
179 1 -0.032484375 -0.00261666666667 -0.015946875 0.1633
180 1 -0.032484375 -0.00261666666667 -0.014765625 0.205289
181 1 -0.032484375 -0.00261666666667 -0.013584375 0.220056
182 1 -0.032484375 -0.00261666666667 -0.012403125 0.245364
183 1 -0.032484375 -0.00261666666667 -0.011221875 0.265151
184 1 -0.032484375 -0.00261666666667 -0.010040625 0.271068
185 1 -0.032484375 -0.00261666666667 -0.008859375 0.29663
186 1 -0.032484375 -0.00261666666667 -0.007678125 0.290872
187 1 -0.032484375 -0.00261666666667 -0.006496875 0.321236
188 1 -0.032484375 -0.00261666666667 -0.005315625 0.309961
189 1 -0.032484375 -0.00261666666667 -0.004134375 0.347534
190 1 -0.032484375 -0.00261666666667 -0.002953125 0.328256
191 1 -0.032484375 -0.00261666666667 -0.001771875 0.381114
192 1 -0.032484375 -0.00261666666667 -0.000590625 0.350272
193 1 -0.032484375 -0.00261666666667 0.000590625 0.41396
194 1 -0.032484375 -0.00261666666667 0.001771875 0.369378
195 1 -0.032484375 -0.00261666666667 0.002953125 0.44006
196 1 -0.032484375 -0.00261666666667 0.004134375 0.376206
197 1 -0.032484375 -0.00261666666667 0.005315625 0.457186
198 1 -0.032484375 -0.00261666666667 0.006496875 0.367569
199 1 -0.032484375 -0.00261666666667 0.007678125 0.446188
200 1 -0.032484375 -0.00261666666667 0.008859375 0.333399
201 1 -0.032484375 -0.00261666666667 0.010040625 0.399842
202 1 -0.032484375 -0.00261666666667 0.011221875 0.278482
203 1 -0.032484375 -0.00261666666667 0.012403125 0.317751
204 1 -0.032484375 -0.00261666666667 0.013584375 0.20665
205 1 -0.032484375 -0.00261666666667 0.014765625 0.22181
206 1 -0.032484375 -0.00261666666667 0.015946875 0.140275
207 1 -0.032484375 -0.00261666666667 0.017128125 0.139181
208 1 -0.032484375 -0.00261666666667 0.018309375 0.0917662
209 1 -0.032484375 -0.00125 -0.018309375 0.108521
210 1 -0.032484375 -0.00125 -0.017128125 0.158688
211 1 -0.032484375 -0.00125 -0.015946875 0.1633
212 1 -0.032484375 -0.00125 -0.014765625 0.205289
213 1 -0.032484375 -0.00125 -0.013584375 0.220056
214 1 -0.032484375 -0.00125 -0.012403125 0.245364
215 1 -0.032484375 -0.00125 -0.011221875 0.265151
216 1 -0.032484375 -0.00125 -0.010040625 0.271068
217 1 -0.032484375 -0.00125 -0.008859375 0.29663
218 1 -0.032484375 -0.00125 -0.007678125 0.290872
219 1 -0.032484375 -0.00125 -0.006496875 0.321236
220 1 -0.032484375 -0.00125 -0.005315625 0.309961
221 1 -0.032484375 -0.00125 -0.004134375 0.347534
222 1 -0.032484375 -0.00125 -0.002953125 0.328256
223 1 -0.032484375 -0.00125 -0.001771875 0.381114
224 1 -0.032484375 -0.00125 -0.000590625 0.350272
225 1 -0.032484375 -0.00125 0.000590625 0.41396
226 1 -0.032484375 -0.00125 0.001771875 0.369378
227 1 -0.032484375 -0.00125 0.002953125 0.44006
228 1 -0.032484375 -0.00125 0.004134375 0.376206
229 1 -0.032484375 -0.00125 0.005315625 0.457186
230 1 -0.032484375 -0.00125 0.006496875 0.367569
231 1 -0.032484375 -0.00125 0.007678125 0.446188
232 1 -0.032484375 -0.00125 0.008859375 0.333399
233 1 -0.032484375 -0.00125 0.010040625 0.399842
234 1 -0.032484375 -0.00125 0.011221875 0.278482
235 1 -0.032484375 -0.00125 0.012403125 0.317751
236 1 -0.032484375 -0.00125 0.013584375 0.20665
237 1 -0.032484375 -0.00125 0.014765625 0.22181
238 1 -0.032484375 -0.00125 0.015946875 0.140275
239 1 -0.032484375 -0.00125 0.017128125 0.139181
240 1 -0.032484375 -0.00125 0.018309375 0.0917662
241 1 -0.032484375 0.000116666666667 -0.018309375 0.108521
242 1 -0.032484375 0.000116666666667 -0.017128125 0.158688
243 1 -0.032484375 0.000116666666667 -0.015946875 0.1633
244 1 -0.032484375 0.000116666666667 -0.014765625 0.205289
245 1 -0.032484375 0.000116666666667 -0.013584375 0.220056
246 1 -0.032484375 0.000116666666667 -0.012403125 0.245364
247 1 -0.032484375 0.000116666666667 -0.011221875 0.265151
248 1 -0.032484375 0.000116666666667 -0.010040625 0.271068
249 1 -0.032484375 0.000116666666667 -0.008859375 0.29663
250 1 -0.032484375 0.000116666666667 -0.007678125 0.290872
251 1 -0.032484375 0.000116666666667 -0.006496875 0.321236
252 1 -0.032484375 0.000116666666667 -0.005315625 0.309961
253 1 -0.032484375 0.000116666666667 -0.004134375 0.347534
254 1 -0.032484375 0.000116666666667 -0.002953125 0.328256
255 1 -0.032484375 0.000116666666667 -0.001771875 0.381114
256 1 -0.032484375 0.000116666666667 -0.000590625 0.350272
257 1 -0.032484375 0.000116666666667 0.000590625 0.41396
258 1 -0.032484375 0.000116666666667 0.001771875 0.369378
259 1 -0.032484375 0.000116666666667 0.002953125 0.44006
260 1 -0.032484375 0.000116666666667 0.004134375 0.376206
261 1 -0.032484375 0.000116666666667 0.005315625 0.457186
262 1 -0.032484375 0.000116666666667 0.006496875 0.367569
263 1 -0.032484375 0.000116666666667 0.007678125 0.446188
264 1 -0.032484375 0.000116666666667 0.008859375 0.333399
265 1 -0.032484375 0.000116666666667 0.010040625 0.399842
266 1 -0.032484375 0.000116666666667 0.011221875 0.278482
267 1 -0.032484375 0.000116666666667 0.012403125 0.317751
268 1 -0.032484375 0.000116666666667 0.013584375 0.20665
269 1 -0.032484375 0.000116666666667 0.014765625 0.22181
270 1 -0.032484375 0.000116666666667 0.015946875 0.140275
271 1 -0.032484375 0.000116666666667 0.017128125 0.139181
272 1 -0.032484375 0.000116666666667 0.018309375 0.0917662
273 1 -0.031303125 -0.00261666666667 -0.019490625 0.256709
274 1 -0.031303125 -0.00261666666667 -0.018309375 0.209913
275 1 -0.031303125 -0.00261666666667 -0.017128125 0.3368
276 1 -0.031303125 -0.00261666666667 -0.015946875 0.312008
277 1 -0.031303125 -0.00261666666667 -0.014765625 0.408517
278 1 -0.031303125 -0.00261666666667 -0.013584375 0.399801
279 1 -0.031303125 -0.00261666666667 -0.012403125 0.457876
280 1 -0.031303125 -0.00261666666667 -0.011221875 0.460655
281 1 -0.031303125 -0.00261666666667 -0.010040625 0.484799
282 1 -0.031303125 -0.00261666666667 -0.008859375 0.496276
283 1 -0.031303125 -0.00261666666667 -0.007678125 0.498324
284 1 -0.031303125 -0.00261666666667 -0.006496875 0.521474
285 1 -0.031303125 -0.00261666666667 -0.005315625 0.511688
286 1 -0.031303125 -0.00261666666667 -0.004134375 0.540685
287 1 -0.031303125 -0.00261666666667 -0.002953125 0.523068
288 1 -0.031303125 -0.00261666666667 -0.001771875 0.557883
289 1 -0.031303125 -0.00261666666667 -0.000590625 0.54082
290 1 -0.031303125 -0.00261666666667 0.000590625 0.573689
291 1 -0.031303125 -0.00261666666667 0.001771875 0.556545
292 1 -0.031303125 -0.00261666666667 0.002953125 0.589203
293 1 -0.031303125 -0.00261666666667 0.004134375 0.567849
294 1 -0.031303125 -0.00261666666667 0.005315625 0.59849
295 1 -0.031303125 -0.00261666666667 0.006496875 0.568113
296 1 -0.031303125 -0.00261666666667 0.007678125 0.596492
297 1 -0.031303125 -0.00261666666667 0.008859375 0.552056
298 1 -0.031303125 -0.00261666666667 0.010040625 0.564073
299 1 -0.031303125 -0.00261666666667 0.011221875 0.508644
300 1 -0.031303125 -0.00261666666667 0.012403125 0.49094
301 1 -0.031303125 -0.00261666666667 0.013584375 0.434416
302 1 -0.031303125 -0.00261666666667 0.014765625 0.373303
303 1 -0.031303125 -0.00261666666667 0.015946875 0.334657
304 1 -0.031303125 -0.00261666666667 0.017128125 0.246782
305 1 -0.031303125 -0.00261666666667 0.018309375 0.240911
306 1 -0.031303125 -0.00261666666667 0.019490625 0.149963
307 1 -0.031303125 -0.00125 -0.019490625 0.256709
308 1 -0.031303125 -0.00125 -0.018309375 0.209913
309 1 -0.031303125 -0.00125 -0.017128125 0.3368
310 1 -0.031303125 -0.00125 -0.015946875 0.312008
311 1 -0.031303125 -0.00125 -0.014765625 0.408517
312 1 -0.031303125 -0.00125 -0.013584375 0.399801
313 1 -0.031303125 -0.00125 -0.012403125 0.457876
314 1 -0.031303125 -0.00125 -0.011221875 0.460655
315 1 -0.031303125 -0.00125 -0.010040625 0.484799
316 1 -0.031303125 -0.00125 -0.008859375 0.496276
317 1 -0.031303125 -0.00125 -0.007678125 0.498324
318 1 -0.031303125 -0.00125 -0.006496875 0.521474
319 1 -0.031303125 -0.00125 -0.005315625 0.511688
320 1 -0.031303125 -0.00125 -0.004134375 0.540685
321 1 -0.031303125 -0.00125 -0.002953125 0.523068
322 1 -0.031303125 -0.00125 -0.001771875 0.557883
323 1 -0.031303125 -0.00125 -0.000590625 0.54082
324 1 -0.031303125 -0.00125 0.000590625 0.573689
325 1 -0.031303125 -0.00125 0.001771875 0.556545
326 1 -0.031303125 -0.00125 0.002953125 0.589203
327 1 -0.031303125 -0.00125 0.004134375 0.567849
328 1 -0.031303125 -0.00125 0.005315625 0.59849
329 1 -0.031303125 -0.00125 0.006496875 0.568113
330 1 -0.031303125 -0.00125 0.007678125 0.596492
331 1 -0.031303125 -0.00125 0.008859375 0.552056
332 1 -0.031303125 -0.00125 0.010040625 0.564073
333 1 -0.031303125 -0.00125 0.011221875 0.508644
334 1 -0.031303125 -0.00125 0.012403125 0.49094
335 1 -0.031303125 -0.00125 0.013584375 0.434416
336 1 -0.031303125 -0.00125 0.014765625 0.373303
337 1 -0.031303125 -0.00125 0.015946875 0.334657
338 1 -0.031303125 -0.00125 0.017128125 0.246782
339 1 -0.031303125 -0.00125 0.018309375 0.240911
340 1 -0.031303125 -0.00125 0.019490625 0.149963
341 1 -0.031303125 0.000116666666667 -0.019490625 0.256709
342 1 -0.031303125 0.000116666666667 -0.018309375 0.209913
343 1 -0.031303125 0.000116666666667 -0.017128125 0.3368
344 1 -0.031303125 0.000116666666667 -0.015946875 0.312008
345 1 -0.031303125 0.000116666666667 -0.014765625 0.408517
346 1 -0.031303125 0.000116666666667 -0.013584375 0.399801
347 1 -0.031303125 0.000116666666667 -0.012403125 0.457876
348 1 -0.031303125 0.000116666666667 -0.011221875 0.460655
349 1 -0.031303125 0.000116666666667 -0.010040625 0.484799
350 1 -0.031303125 0.000116666666667 -0.008859375 0.496276
351 1 -0.031303125 0.000116666666667 -0.007678125 0.498324
352 1 -0.031303125 0.000116666666667 -0.006496875 0.521474
353 1 -0.031303125 0.000116666666667 -0.005315625 0.511688
354 1 -0.031303125 0.000116666666667 -0.004134375 0.540685
355 1 -0.031303125 0.000116666666667 -0.002953125 0.523068
356 1 -0.031303125 0.000116666666667 -0.001771875 0.557883
357 1 -0.031303125 0.000116666666667 -0.000590625 0.54082
358 1 -0.031303125 0.000116666666667 0.000590625 0.573689
359 1 -0.031303125 0.000116666666667 0.001771875 0.556545
360 1 -0.031303125 0.000116666666667 0.002953125 0.589203
361 1 -0.031303125 0.000116666666667 0.004134375 0.567849
362 1 -0.031303125 0.000116666666667 0.005315625 0.59849
363 1 -0.031303125 0.000116666666667 0.006496875 0.568113
364 1 -0.031303125 0.000116666666667 0.007678125 0.596492
365 1 -0.031303125 0.000116666666667 0.008859375 0.552056
366 1 -0.031303125 0.000116666666667 0.010040625 0.564073
367 1 -0.031303125 0.000116666666667 0.011221875 0.508644
368 1 -0.031303125 0.000116666666667 0.012403125 0.49094
369 1 -0.031303125 0.000116666666667 0.013584375 0.434416
370 1 -0.031303125 0.000116666666667 0.014765625 0.373303
371 1 -0.031303125 0.000116666666667 0.015946875 0.334657
372 1 -0.031303125 0.000116666666667 0.017128125 0.246782
373 1 -0.031303125 0.000116666666667 0.018309375 0.240911
374 1 -0.031303125 0.000116666666667 0.019490625 0.149963
375 1 -0.030121875 -0.00261666666667 -0.020671875 0.169658
376 1 -0.030121875 -0.00261666666667 -0.019490625 0.237652
377 1 -0.030121875 -0.00261666666667 -0.018309375 0.274501
378 1 -0.030121875 -0.00261666666667 -0.017128125 0.335818
379 1 -0.030121875 -0.00261666666667 -0.015946875 0.375983
380 1 -0.030121875 -0.00261666666667 -0.014765625 0.399378
381 1 -0.030121875 -0.00261666666667 -0.013584375 0.455421
382 1 -0.030121875 -0.00261666666667 -0.012403125 0.443335
383 1 -0.030121875 -0.00261666666667 -0.011221875 0.497389
384 1 -0.030121875 -0.00261666666667 -0.010040625 0.463986
385 1 -0.030121875 -0.00261666666667 -0.008859375 0.516367
386 1 -0.030121875 -0.00261666666667 -0.007678125 0.47677
387 1 -0.030121875 -0.00261666666667 -0.006496875 0.526043
388 1 -0.030121875 -0.00261666666667 -0.005315625 0.488312
389 1 -0.030121875 -0.00261666666667 -0.004134375 0.533547
390 1 -0.030121875 -0.00261666666667 -0.002953125 0.49902
391 1 -0.030121875 -0.00261666666667 -0.001771875 0.547182
392 1 -0.030121875 -0.00261666666667 -0.000590625 0.51367
393 1 -0.030121875 -0.00261666666667 0.000590625 0.565709
394 1 -0.030121875 -0.00261666666667 0.001771875 0.527835
395 1 -0.030121875 -0.00261666666667 0.002953125 0.586266
396 1 -0.030121875 -0.00261666666667 0.004134375 0.535226
397 1 -0.030121875 -0.00261666666667 0.005315625 0.609993
398 1 -0.030121875 -0.00261666666667 0.006496875 0.536392
399 1 -0.030121875 -0.00261666666667 0.007678125 0.619992
400 1 -0.030121875 -0.00261666666667 0.008859375 0.516477
401 1 -0.030121875 -0.00261666666667 0.010040625 0.610293
402 1 -0.030121875 -0.00261666666667 0.011221875 0.473721
403 1 -0.030121875 -0.00261666666667 0.012403125 0.566962
404 1 -0.030121875 -0.00261666666667 0.013584375 0.400146
405 1 -0.030121875 -0.00261666666667 0.014765625 0.478604
406 1 -0.030121875 -0.00261666666667 0.015946875 0.305103
407 1 -0.030121875 -0.00261666666667 0.017128125 0.341477
408 1 -0.030121875 -0.00261666666667 0.018309375 0.204369
409 1 -0.030121875 -0.00261666666667 0.019490625 0.212003
410 1 -0.030121875 -0.00261666666667 0.020671875 0.134018
411 1 -0.030121875 -0.00125 -0.020671875 0.169658
412 1 -0.030121875 -0.00125 -0.019490625 0.237652
413 1 -0.030121875 -0.00125 -0.018309375 0.274501
414 1 -0.030121875 -0.00125 -0.017128125 0.335818
415 1 -0.030121875 -0.00125 -0.015946875 0.375983
416 1 -0.030121875 -0.00125 -0.014765625 0.399378
417 1 -0.030121875 -0.00125 -0.013584375 0.455421
418 1 -0.030121875 -0.00125 -0.012403125 0.443335
419 1 -0.030121875 -0.00125 -0.011221875 0.497389
420 1 -0.030121875 -0.00125 -0.010040625 0.463986
421 1 -0.030121875 -0.00125 -0.008859375 0.516367
422 1 -0.030121875 -0.00125 -0.007678125 0.47677
423 1 -0.030121875 -0.00125 -0.006496875 0.526043
424 1 -0.030121875 -0.00125 -0.005315625 0.488312
425 1 -0.030121875 -0.00125 -0.004134375 0.533547
426 1 -0.030121875 -0.00125 -0.002953125 0.49902
427 1 -0.030121875 -0.00125 -0.001771875 0.547182
428 1 -0.030121875 -0.00125 -0.000590625 0.51367
429 1 -0.030121875 -0.00125 0.000590625 0.565709
430 1 -0.030121875 -0.00125 0.001771875 0.527835
431 1 -0.030121875 -0.00125 0.002953125 0.586266
432 1 -0.030121875 -0.00125 0.004134375 0.535226
433 1 -0.030121875 -0.00125 0.005315625 0.609993
434 1 -0.030121875 -0.00125 0.006496875 0.536392
435 1 -0.030121875 -0.00125 0.007678125 0.619992
436 1 -0.030121875 -0.00125 0.008859375 0.516477
437 1 -0.030121875 -0.00125 0.010040625 0.610293
438 1 -0.030121875 -0.00125 0.011221875 0.473721
439 1 -0.030121875 -0.00125 0.012403125 0.566962
440 1 -0.030121875 -0.00125 0.013584375 0.400146
441 1 -0.030121875 -0.00125 0.014765625 0.478604
442 1 -0.030121875 -0.00125 0.015946875 0.305103
443 1 -0.030121875 -0.00125 0.017128125 0.341477
444 1 -0.030121875 -0.00125 0.018309375 0.204369
445 1 -0.030121875 -0.00125 0.019490625 0.212003
446 1 -0.030121875 -0.00125 0.020671875 0.134018
447 1 -0.030121875 0.000116666666667 -0.020671875 0.169658
448 1 -0.030121875 0.000116666666667 -0.019490625 0.237652
449 1 -0.030121875 0.000116666666667 -0.018309375 0.274501
450 1 -0.030121875 0.000116666666667 -0.017128125 0.335818
451 1 -0.030121875 0.000116666666667 -0.015946875 0.375983
452 1 -0.030121875 0.000116666666667 -0.014765625 0.399378
453 1 -0.030121875 0.000116666666667 -0.013584375 0.455421
454 1 -0.030121875 0.000116666666667 -0.012403125 0.443335
455 1 -0.030121875 0.000116666666667 -0.011221875 0.497389
456 1 -0.030121875 0.000116666666667 -0.010040625 0.463986
457 1 -0.030121875 0.000116666666667 -0.008859375 0.516367
458 1 -0.030121875 0.000116666666667 -0.007678125 0.47677
459 1 -0.030121875 0.000116666666667 -0.006496875 0.526043
460 1 -0.030121875 0.000116666666667 -0.005315625 0.488312
461 1 -0.030121875 0.000116666666667 -0.004134375 0.533547
462 1 -0.030121875 0.000116666666667 -0.002953125 0.49902
463 1 -0.030121875 0.000116666666667 -0.001771875 0.547182
464 1 -0.030121875 0.000116666666667 -0.000590625 0.51367
465 1 -0.030121875 0.000116666666667 0.000590625 0.565709
466 1 -0.030121875 0.000116666666667 0.001771875 0.527835
467 1 -0.030121875 0.000116666666667 0.002953125 0.586266
468 1 -0.030121875 0.000116666666667 0.004134375 0.535226
469 1 -0.030121875 0.000116666666667 0.005315625 0.609993
470 1 -0.030121875 0.000116666666667 0.006496875 0.536392
471 1 -0.030121875 0.000116666666667 0.007678125 0.619992
472 1 -0.030121875 0.000116666666667 0.008859375 0.516477
473 1 -0.030121875 0.000116666666667 0.010040625 0.610293
474 1 -0.030121875 0.000116666666667 0.011221875 0.473721
475 1 -0.030121875 0.000116666666667 0.012403125 0.566962
476 1 -0.030121875 0.000116666666667 0.013584375 0.400146
477 1 -0.030121875 0.000116666666667 0.014765625 0.478604
478 1 -0.030121875 0.000116666666667 0.015946875 0.305103
479 1 -0.030121875 0.000116666666667 0.017128125 0.341477
480 1 -0.030121875 0.000116666666667 0.018309375 0.204369
481 1 -0.030121875 0.000116666666667 0.019490625 0.212003
482 1 -0.030121875 0.000116666666667 0.020671875 0.134018
483 1 -0.028940625 -0.00261666666667 -0.021853125 0.303855
484 1 -0.028940625 -0.00261666666667 -0.020671875 0.283554
485 1 -0.028940625 -0.00261666666667 -0.019490625 0.414195
486 1 -0.028940625 -0.00261666666667 -0.018309375 0.429586
487 1 -0.028940625 -0.00261666666667 -0.017128125 0.50353
488 1 -0.028940625 -0.00261666666667 -0.015946875 0.533704
489 1 -0.028940625 -0.00261666666667 -0.014765625 0.548035
490 1 -0.028940625 -0.00261666666667 -0.013584375 0.571356
491 1 -0.028940625 -0.00261666666667 -0.012403125 0.568323
492 1 -0.028940625 -0.00261666666667 -0.011221875 0.589224
493 1 -0.028940625 -0.00261666666667 -0.010040625 0.577172
494 1 -0.028940625 -0.00261666666667 -0.008859375 0.594999
495 1 -0.028940625 -0.00261666666667 -0.007678125 0.576909
496 1 -0.028940625 -0.00261666666667 -0.006496875 0.597699
497 1 -0.028940625 -0.00261666666667 -0.005315625 0.578981
498 1 -0.028940625 -0.00261666666667 -0.004134375 0.599722
499 1 -0.028940625 -0.00261666666667 -0.002953125 0.583277
500 1 -0.028940625 -0.00261666666667 -0.001771875 0.608547
501 1 -0.028940625 -0.00261666666667 -0.000590625 0.597032
502 1 -0.028940625 -0.00261666666667 0.000590625 0.620954
503 1 -0.028940625 -0.00261666666667 0.001771875 0.610793
504 1 -0.028940625 -0.00261666666667 0.002953125 0.635115
505 1 -0.028940625 -0.00261666666667 0.004134375 0.622151
506 1 -0.028940625 -0.00261666666667 0.005315625 0.645571
507 1 -0.028940625 -0.00261666666667 0.006496875 0.625074
508 1 -0.028940625 -0.00261666666667 0.007678125 0.649023
509 1 -0.028940625 -0.00261666666667 0.008859375 0.61614
510 1 -0.028940625 -0.00261666666667 0.010040625 0.642573
511 1 -0.028940625 -0.00261666666667 0.011221875 0.59316
512 1 -0.028940625 -0.00261666666667 0.012403125 0.626662
513 1 -0.028940625 -0.00261666666667 0.013584375 0.554085
514 1 -0.028940625 -0.00261666666667 0.014765625 0.580183
515 1 -0.028940625 -0.00261666666667 0.015946875 0.49047
516 1 -0.028940625 -0.00261666666667 0.017128125 0.478942
517 1 -0.028940625 -0.00261666666667 0.018309375 0.389874
518 1 -0.028940625 -0.00261666666667 0.019490625 0.336755
519 1 -0.028940625 -0.00261666666667 0.020671875 0.291585
520 1 -0.028940625 -0.00261666666667 0.021853125 0.217174
521 1 -0.028940625 -0.00125 -0.021853125 0.303855
522 1 -0.028940625 -0.00125 -0.020671875 0.283554
523 1 -0.028940625 -0.00125 -0.019490625 0.414195
524 1 -0.028940625 -0.00125 -0.018309375 0.429586
525 1 -0.028940625 -0.00125 -0.017128125 0.50353
526 1 -0.028940625 -0.00125 -0.015946875 0.533704
527 1 -0.028940625 -0.00125 -0.014765625 0.548035
528 1 -0.028940625 -0.00125 -0.013584375 0.571356
529 1 -0.028940625 -0.00125 -0.012403125 0.568323
530 1 -0.028940625 -0.00125 -0.011221875 0.589224
531 1 -0.028940625 -0.00125 -0.010040625 0.577172
532 1 -0.028940625 -0.00125 -0.008859375 0.594999
533 1 -0.028940625 -0.00125 -0.007678125 0.576909
534 1 -0.028940625 -0.00125 -0.006496875 0.597699
535 1 -0.028940625 -0.00125 -0.005315625 0.578981
536 1 -0.028940625 -0.00125 -0.004134375 0.599722
537 1 -0.028940625 -0.00125 -0.002953125 0.583277
538 1 -0.028940625 -0.00125 -0.001771875 0.608547