ITEM: TIMESTEP
0
ITEM: NUMBER OF ATOMS
9240
ITEM: BOX BOUNDS ss ss ss
-3.7007399999999996e-02 3.7007399999999996e-02
-2.0002499999999999e-03 2.5000000000000004e-07
-3.7007399999999996e-02 3.7007399999999996e-02
ITEM: ATOMS id type x y z c_1
0 1 -0.037209375 -0.00261666666667 -0.000590625 0.330337
1 1 -0.037209375 -0.00125 -0.000590625 0.330337
2 1 -0.037209375 0.000116666666667 -0.000590625 0.330337
3 1 -0.036028125 -0.00261666666667 -0.007678125 0.238114
4 1 -0.036028125 -0.00261666666667 -0.006496875 0.144311
5 1 -0.036028125 -0.00261666666667 -0.005315625 0.250004
6 1 -0.036028125 -0.00261666666667 -0.004134375 0.156003
7 1 -0.036028125 -0.00261666666667 -0.002953125 0.259163
8 1 -0.036028125 -0.00261666666667 -0.001771875 0.16701
9 1 -0.036028125 -0.00261666666667 -0.000590625 0.268499
10 1 -0.036028125 -0.00261666666667 0.000590625 0.175061
11 1 -0.036028125 -0.00261666666667 0.001771875 0.273494
12 1 -0.036028125 -0.00261666666667 0.002953125 0.177231
13 1 -0.036028125 -0.00261666666667 0.004134375 0.269595
14 1 -0.036028125 -0.00261666666667 0.005315625 0.16939
15 1 -0.036028125 -0.00261666666667 0.006496875 0.255378
16 1 -0.036028125 -0.00261666666667 0.007678125 0.154156
17 1 -0.036028125 -0.00125 -0.007678125 0.238114
18 1 -0.036028125 -0.00125 -0.006496875 0.144311
19 1 -0.036028125 -0.00125 -0.005315625 0.250004
20 1 -0.036028125 -0.00125 -0.004134375 0.156003
21 1 -0.036028125 -0.00125 -0.002953125 0.259163
22 1 -0.036028125 -0.00125 -0.001771875 0.16701
23 1 -0.036028125 -0.00125 -0.000590625 0.268499
24 1 -0.036028125 -0.00125 0.000590625 0.175061
25 1 -0.036028125 -0.00125 0.001771875 0.273494
26 1 -0.036028125 -0.00125 0.002953125 0.177231
27 1 -0.036028125 -0.00125 0.004134375 0.269595
28 1 -0.036028125 -0.00125 0.005315625 0.16939
29 1 -0.036028125 -0.00125 0.006496875 0.255378
30 1 -0.036028125 -0.00125 0.007678125 0.154156
31 1 -0.036028125 0.000116666666667 -0.007678125 0.238114
32 1 -0.036028125 0.000116666666667 -0.006496875 0.144311
33 1 -0.036028125 0.000116666666667 -0.005315625 0.250004
34 1 -0.036028125 0.000116666666667 -0.004134375 0.156003
35 1 -0.036028125 0.000116666666667 -0.002953125 0.259163
36 1 -0.036028125 0.000116666666667 -0.001771875 0.16701
37 1 -0.036028125 0.000116666666667 -0.000590625 0.268499
38 1 -0.036028125 0.000116666666667 0.000590625 0.175061
39 1 -0.036028125 0.000116666666667 0.001771875 0.273494
40 1 -0.036028125 0.000116666666667 0.002953125 0.177231
41 1 -0.036028125 0.000116666666667 0.004134375 0.269595
42 1 -0.036028125 0.000116666666667 0.005315625 0.16939
43 1 -0.036028125 0.000116666666667 0.006496875 0.255378
44 1 -0.036028125 0.000116666666667 0.007678125 0.154156
45 1 -0.034846875 -0.00261666666667 -0.011221875 0.134823
46 1 -0.034846875 -0.00261666666667 -0.010040625 0.206987
47 1 -0.034846875 -0.00261666666667 -0.008859375 0.158885
48 1 -0.034846875 -0.00261666666667 -0.007678125 0.223327
49 1 -0.034846875 -0.00261666666667 -0.006496875 0.176724
50 1 -0.034846875 -0.00261666666667 -0.005315625 0.232811
51 1 -0.034846875 -0.00261666666667 -0.004134375 0.191855
52 1 -0.034846875 -0.00261666666667 -0.002953125 0.24118
53 1 -0.034846875 -0.00261666666667 -0.001771875 0.205666
54 1 -0.034846875 -0.00261666666667 -0.000590625 0.248684
55 1 -0.034846875 -0.00261666666667 0.000590625 0.215478
56 1 -0.034846875 -0.00261666666667 0.001771875 0.252974
57 1 -0.034846875 -0.00261666666667 0.002953125 0.216699
58 1 -0.034846875 -0.00261666666667 0.004134375 0.245915
59 1 -0.034846875 -0.00261666666667 0.005315625 0.208267
60 1 -0.034846875 -0.00261666666667 0.006496875 0.229561
61 1 -0.034846875 -0.00261666666667 0.007678125 0.188307
62 1 -0.034846875 -0.00261666666667 0.008859375 0.204434
63 1 -0.034846875 -0.00261666666667 0.010040625 0.161432
64 1 -0.034846875 -0.00261666666667 0.011221875 0.177368
65 1 -0.034846875 -0.00125 -0.011221875 0.134823
66 1 -0.034846875 -0.00125 -0.010040625 0.206987
67 1 -0.034846875 -0.00125 -0.008859375 0.158885
68 1 -0.034846875 -0.00125 -0.007678125 0.223327
69 1 -0.034846875 -0.00125 -0.006496875 0.176724
70 1 -0.034846875 -0.00125 -0.005315625 0.232811
71 1 -0.034846875 -0.00125 -0.004134375 0.191855
72 1 -0.034846875 -0.00125 -0.002953125 0.24118
73 1 -0.034846875 -0.00125 -0.001771875 0.205666
74 1 -0.034846875 -0.00125 -0.000590625 0.248684
75 1 -0.034846875 -0.00125 0.000590625 0.215478
76 1 -0.034846875 -0.00125 0.001771875 0.252974
77 1 -0.034846875 -0.00125 0.002953125 0.216699
78 1 -0.034846875 -0.00125 0.004134375 0.245915
79 1 -0.034846875 -0.00125 0.005315625 0.208267
80 1 -0.034846875 -0.00125 0.006496875 0.229561
81 1 -0.034846875 -0.00125 0.007678125 0.188307
82 1 -0.034846875 -0.00125 0.008859375 0.204434
83 1 -0.034846875 -0.00125 0.010040625 0.161432
84 1 -0.034846875 -0.00125 0.011221875 0.177368
85 1 -0.034846875 0.000116666666667 -0.011221875 0.134823
86 1 -0.034846875 0.000116666666667 -0.010040625 0.206987
87 1 -0.034846875 0.000116666666667 -0.008859375 0.158885
88 1 -0.034846875 0.000116666666667 -0.007678125 0.223327
89 1 -0.034846875 0.000116666666667 -0.006496875 0.176724
90 1 -0.034846875 0.000116666666667 -0.005315625 0.232811
91 1 -0.034846875 0.000116666666667 -0.004134375 0.191855
92 1 -0.034846875 0.000116666666667 -0.002953125 0.24118
93 1 -0.034846875 0.000116666666667 -0.001771875 0.205666
94 1 -0.034846875 0.000116666666667 -0.000590625 0.248684
95 1 -0.034846875 0.000116666666667 0.000590625 0.215478
96 1 -0.034846875 0.000116666666667 0.001771875 0.252974
97 1 -0.034846875 0.000116666666667 0.002953125 0.216699
98 1 -0.034846875 0.000116666666667 0.004134375 0.245915
99 1 -0.034846875 0.000116666666667 0.005315625 0.208267
100 1 -0.034846875 0.000116666666667 0.006496875 0.229561
101 1 -0.034846875 0.000116666666667 0.007678125 0.188307
102 1 -0.034846875 0.000116666666667 0.008859375 0.204434
103 1 -0.034846875 0.000116666666667 0.010040625 0.161432
104 1 -0.034846875 0.000116666666667 0.011221875 0.177368
105 1 -0.033665625 -0.00261666666667 -0.013584375 0.201371
106 1 -0.033665625 -0.00261666666667 -0.012403125 0.31332
107 1 -0.033665625 -0.00261666666667 -0.011221875 0.259677
108 1 -0.033665625 -0.00261666666667 -0.010040625 0.354769
109 1 -0.033665625 -0.00261666666667 -0.008859375 0.303134
110 1 -0.033665625 -0.00261666666667 -0.007678125 0.377796
111 1 -0.033665625 -0.00261666666667 -0.006496875 0.332546
112 1 -0.033665625 -0.00261666666667 -0.005315625 0.393522
113 1 -0.033665625 -0.00261666666667 -0.004134375 0.353484
114 1 -0.033665625 -0.00261666666667 -0.002953125 0.405623
115 1 -0.033665625 -0.00261666666667 -0.001771875 0.37301
116 1 -0.033665625 -0.00261666666667 -0.000590625 0.418085
117 1 -0.033665625 -0.00261666666667 0.000590625 0.385705
118 1 -0.033665625 -0.00261666666667 0.001771875 0.423124
119 1 -0.033665625 -0.00261666666667 0.002953125 0.387763
120 1 -0.033665625 -0.00261666666667 0.004134375 0.415879
121 1 -0.033665625 -0.00261666666667 0.005315625 0.372517
122 1 -0.033665625 -0.00261666666667 0.006496875 0.396893
123 1 -0.033665625 -0.00261666666667 0.007678125 0.341691
124 1 -0.033665625 -0.00261666666667 0.008859375 0.365677
125 1 -0.033665625 -0.00261666666667 0.010040625 0.296471
126 1 -0.033665625 -0.00261666666667 0.011221875 0.322358
127 1 -0.033665625 -0.00261666666667 0.012403125 0.241327
128 1 -0.033665625 -0.00261666666667 0.013584375 0.268621
129 1 -0.033665625 -0.00125 -0.013584375 0.201371
130 1 -0.033665625 -0.00125 -0.012403125 0.31332
131 1 -0.033665625 -0.00125 -0.011221875 0.259677
132 1 -0.033665625 -0.00125 -0.010040625 0.354769
133 1 -0.033665625 -0.00125 -0.008859375 0.303134
134 1 -0.033665625 -0.00125 -0.007678125 0.377796
135 1 -0.033665625 -0.00125 -0.006496875 0.332546
136 1 -0.033665625 -0.00125 -0.005315625 0.393522
137 1 -0.033665625 -0.00125 -0.004134375 0.353484
138 1 -0.033665625 -0.00125 -0.002953125 0.405623
139 1 -0.033665625 -0.00125 -0.001771875 0.37301
140 1 -0.033665625 -0.00125 -0.000590625 0.418085
141 1 -0.033665625 -0.00125 0.000590625 0.385705
142 1 -0.033665625 -0.00125 0.001771875 0.423124
143 1 -0.033665625 -0.00125 0.002953125 0.387763
144 1 -0.033665625 -0.00125 0.004134375 0.415879
145 1 -0.033665625 -0.00125 0.005315625 0.372517
146 1 -0.033665625 -0.00125 0.006496875 0.396893
147 1 -0.033665625 -0.00125 0.007678125 0.341691
148 1 -0.033665625 -0.00125 0.008859375 0.365677
149 1 -0.033665625 -0.00125 0.010040625 0.296471
150 1 -0.033665625 -0.00125 0.011221875 0.322358
151 1 -0.033665625 -0.00125 0.012403125 0.241327
152 1 -0.033665625 -0.00125 0.013584375 0.268621
153 1 -0.033665625 0.000116666666667 -0.013584375 0.201371
154 1 -0.033665625 0.000116666666667 -0.012403125 0.31332
155 1 -0.033665625 0.000116666666667 -0.011221875 0.259677
156 1 -0.033665625 0.000116666666667 -0.010040625 0.354769
157 1 -0.033665625 0.000116666666667 -0.008859375 0.303134
158 1 -0.033665625 0.000116666666667 -0.007678125 0.377796
159 1 -0.033665625 0.000116666666667 -0.006496875 0.332546
160 1 -0.033665625 0.000116666666667 -0.005315625 0.393522
161 1 -0.033665625 0.000116666666667 -0.004134375 0.353484
162 1 -0.033665625 0.000116666666667 -0.002953125 0.405623
163 1 -0.033665625 0.000116666666667 -0.001771875 0.37301
164 1 -0.033665625 0.000116666666667 -0.000590625 0.418085
165 1 -0.033665625 0.000116666666667 0.000590625 0.385705
166 1 -0.033665625 0.000116666666667 0.001771875 0.423124
167 1 -0.033665625 0.000116666666667 0.002953125 0.387763
168 1 -0.033665625 0.000116666666667 0.004134375 0.415879
169 1 -0.033665625 0.000116666666667 0.005315625 0.372517
170 1 -0.033665625 0.000116666666667 0.006496875 0.396893
171 1 -0.033665625 0.000116666666667 0.007678125 0.341691
172 1 -0.033665625 0.000116666666667 0.008859375 0.365677
173 1 -0.033665625 0.000116666666667 0.010040625 0.296471
174 1 -0.033665625 0.000116666666667 0.011221875 0.322358
175 1 -0.033665625 0.000116666666667 0.012403125 0.241327
176 1 -0.033665625 0.000116666666667 0.013584375 0.268621
177 1 -0.032484375 -0.00261666666667 -0.018309375 0.166433
178 1 -0.032484375 -0.00261666666667 -0.017128125 0.224098
179 1 -0.032484375 -0.00261666666667 -0.015946875 0.253424
180 1 -0.032484375 -0.00261666666667 -0.014765625 0.292078
181 1 -0.032484375 -0.00261666666667 -0.013584375 0.346357
182 1 -0.032484375 -0.00261666666667 -0.012403125 0.356956
183 1 -0.032484375 -0.00261666666667 -0.011221875 0.420857
184 1 -0.032484375 -0.00261666666667 -0.010040625 0.392565
185 1 -0.032484375 -0.00261666666667 -0.008859375 0.463088
186 1 -0.032484375 -0.00261666666667 -0.007678125 0.408017
187 1 -0.032484375 -0.00261666666667 -0.006496875 0.48363
188 1 -0.032484375 -0.00261666666667 -0.005315625 0.413075
189 1 -0.032484375 -0.00261666666667 -0.004134375 0.495894
190 1 -0.032484375 -0.00261666666667 -0.002953125 0.418075
191 1 -0.032484375 -0.00261666666667 -0.001771875 0.506009
192 1 -0.032484375 -0.00261666666667 -0.000590625 0.424663
193 1 -0.032484375 -0.00261666666667 0.000590625 0.515927
194 1 -0.032484375 -0.00261666666667 0.001771875 0.429524
195 1 -0.032484375 -0.00261666666667 0.002953125 0.521848
196 1 -0.032484375 -0.00261666666667 0.004134375 0.422587
197 1 -0.032484375 -0.00261666666667 0.005315625 0.519939
198 1 -0.032484375 -0.00261666666667 0.006496875 0.407276
199 1 -0.032484375 -0.00261666666667 0.007678125 0.495837
200 1 -0.032484375 -0.00261666666667 0.008859375 0.375546
201 1 -0.032484375 -0.00261666666667 0.010040625 0.447272
202 1 -0.032484375 -0.00261666666667 0.011221875 0.329016
203 1 -0.032484375 -0.00261666666667 0.012403125 0.377723
204 1 -0.032484375 -0.00261666666667 0.013584375 0.266966
205 1 -0.032484375 -0.00261666666667 0.014765625 0.292374
206 1 -0.032484375 -0.00261666666667 0.015946875 0.205048
207 1 -0.032484375 -0.00261666666667 0.017128125 0.206992
208 1 -0.032484375 -0.00261666666667 0.018309375 0.152848
209 1 -0.032484375 -0.00125 -0.018309375 0.166433
210 1 -0.032484375 -0.00125 -0.017128125 0.224098
211 1 -0.032484375 -0.00125 -0.015946875 0.253424
212 1 -0.032484375 -0.00125 -0.014765625 0.292078
213 1 -0.032484375 -0.00125 -0.013584375 0.346357
214 1 -0.032484375 -0.00125 -0.012403125 0.356956
215 1 -0.032484375 -0.00125 -0.011221875 0.420857
216 1 -0.032484375 -0.00125 -0.010040625 0.392565
217 1 -0.032484375 -0.00125 -0.008859375 0.463088
218 1 -0.032484375 -0.00125 -0.007678125 0.408017
219 1 -0.032484375 -0.00125 -0.006496875 0.48363
220 1 -0.032484375 -0.00125 -0.005315625 0.413075
221 1 -0.032484375 -0.00125 -0.004134375 0.495894
222 1 -0.032484375 -0.00125 -0.002953125 0.418075
223 1 -0.032484375 -0.00125 -0.001771875 0.506009
224 1 -0.032484375 -0.00125 -0.000590625 0.424663
225 1 -0.032484375 -0.00125 0.000590625 0.515927
226 1 -0.032484375 -0.00125 0.001771875 0.429524
227 1 -0.032484375 -0.00125 0.002953125 0.521848
228 1 -0.032484375 -0.00125 0.004134375 0.422587
229 1 -0.032484375 -0.00125 0.005315625 0.519939
230 1 -0.032484375 -0.00125 0.006496875 0.407276
231 1 -0.032484375 -0.00125 0.007678125 0.495837
232 1 -0.032484375 -0.00125 0.008859375 0.375546
233 1 -0.032484375 -0.00125 0.010040625 0.447272
234 1 -0.032484375 -0.00125 0.011221875 0.329016
235 1 -0.032484375 -0.00125 0.012403125 0.377723
236 1 -0.032484375 -0.00125 0.013584375 0.266966
237 1 -0.032484375 -0.00125 0.014765625 0.292374
238 1 -0.032484375 -0.00125 0.015946875 0.205048
239 1 -0.032484375 -0.00125 0.017128125 0.206992
240 1 -0.032484375 -0.00125 0.018309375 0.152848
241 1 -0.032484375 0.000116666666667 -0.018309375 0.166433
242 1 -0.032484375 0.000116666666667 -0.017128125 0.224098
243 1 -0.032484375 0.000116666666667 -0.015946875 0.253424
244 1 -0.032484375 0.000116666666667 -0.014765625 0.292078
245 1 -0.032484375 0.000116666666667 -0.013584375 0.346357
246 1 -0.032484375 0.000116666666667 -0.012403125 0.356956
247 1 -0.032484375 0.000116666666667 -0.011221875 0.420857
248 1 -0.032484375 0.000116666666667 -0.010040625 0.392565
249 1 -0.032484375 0.000116666666667 -0.008859375 0.463088
250 1 -0.032484375 0.000116666666667 -0.007678125 0.408017
251 1 -0.032484375 0.000116666666667 -0.006496875 0.48363
252 1 -0.032484375 0.000116666666667 -0.005315625 0.413075
253 1 -0.032484375 0.000116666666667 -0.004134375 0.495894
254 1 -0.032484375 0.000116666666667 -0.002953125 0.418075
255 1 -0.032484375 0.000116666666667 -0.001771875 0.506009
256 1 -0.032484375 0.000116666666667 -0.000590625 0.424663
257 1 -0.032484375 0.000116666666667 0.000590625 0.515927
258 1 -0.032484375 0.000116666666667 0.001771875 0.429524
259 1 -0.032484375 0.000116666666667 0.002953125 0.521848
260 1 -0.032484375 0.000116666666667 0.004134375 0.422587
261 1 -0.032484375 0.000116666666667 0.005315625 0.519939
262 1 -0.032484375 0.000116666666667 0.006496875 0.407276
263 1 -0.032484375 0.000116666666667 0.007678125 0.495837
264 1 -0.032484375 0.000116666666667 0.008859375 0.375546
265 1 -0.032484375 0.000116666666667 0.010040625 0.447272
266 1 -0.032484375 0.000116666666667 0.011221875 0.329016
267 1 -0.032484375 0.000116666666667 0.012403125 0.377723
268 1 -0.032484375 0.000116666666667 0.013584375 0.266966
269 1 -0.032484375 0.000116666666667 0.014765625 0.292374
270 1 -0.032484375 0.000116666666667 0.015946875 0.205048
271 1 -0.032484375 0.000116666666667 0.017128125 0.206992
272 1 -0.032484375 0.000116666666667 0.018309375 0.152848
273 1 -0.031303125 -0.00261666666667 -0.019490625 0.275251
274 1 -0.031303125 -0.00261666666667 -0.018309375 0.265984
275 1 -0.031303125 -0.00261666666667 -0.017128125 0.369968
276 1 -0.031303125 -0.00261666666667 -0.015946875 0.391181
277 1 -0.031303125 -0.00261666666667 -0.014765625 0.457876
278 1 -0.031303125 -0.00261666666667 -0.013584375 0.495656
279 1 -0.031303125 -0.00261666666667 -0.012403125 0.516654
280 1 -0.031303125 -0.00261666666667 -0.011221875 0.56461
281 1 -0.031303125 -0.00261666666667 -0.010040625 0.548615
282 1 -0.031303125 -0.00261666666667 -0.008859375 0.594969
283 1 -0.031303125 -0.00261666666667 -0.007678125 0.556472
284 1 -0.031303125 -0.00261666666667 -0.006496875 0.602298
285 1 -0.031303125 -0.00261666666667 -0.005315625 0.560022
286 1 -0.031303125 -0.00261666666667 -0.004134375 0.600937
287 1 -0.031303125 -0.00261666666667 -0.002953125 0.561018
288 1 -0.031303125 -0.00261666666667 -0.001771875 0.603117
289 1 -0.031303125 -0.00261666666667 -0.000590625 0.567687
290 1 -0.031303125 -0.00261666666667 0.000590625 0.609232
291 1 -0.031303125 -0.00261666666667 0.001771875 0.57301
292 1 -0.031303125 -0.00261666666667 0.002953125 0.618619
293 1 -0.031303125 -0.00261666666667 0.004134375 0.574857
294 1 -0.031303125 -0.00261666666667 0.005315625 0.620889
295 1 -0.031303125 -0.00261666666667 0.006496875 0.568174
296 1 -0.031303125 -0.00261666666667 0.007678125 0.60825
297 1 -0.031303125 -0.00261666666667 0.008859375 0.547678
298 1 -0.031303125 -0.00261666666667 0.010040625 0.575074
299 1 -0.031303125 -0.00261666666667 0.011221875 0.50301
300 1 -0.031303125 -0.00261666666667 0.012403125 0.512398
301 1 -0.031303125 -0.00261666666667 0.013584375 0.441167
302 1 -0.031303125 -0.00261666666667 0.014765625 0.423324
303 1 -0.031303125 -0.00261666666667 0.015946875 0.365456
304 1 -0.031303125 -0.00261666666667 0.017128125 0.320631
305 1 -0.031303125 -0.00261666666667 0.018309375 0.28262
306 1 -0.031303125 -0.00261666666667 0.019490625 0.22834
307 1 -0.031303125 -0.00125 -0.019490625 0.275251
308 1 -0.031303125 -0.00125 -0.018309375 0.265984
309 1 -0.031303125 -0.00125 -0.017128125 0.369968
310 1 -0.031303125 -0.00125 -0.015946875 0.391181
311 1 -0.031303125 -0.00125 -0.014765625 0.457876
312 1 -0.031303125 -0.00125 -0.013584375 0.495656
313 1 -0.031303125 -0.00125 -0.012403125 0.516654
314 1 -0.031303125 -0.00125 -0.011221875 0.56461
315 1 -0.031303125 -0.00125 -0.010040625 0.548615
316 1 -0.031303125 -0.00125 -0.008859375 0.594969
317 1 -0.031303125 -0.00125 -0.007678125 0.556472
318 1 -0.031303125 -0.00125 -0.006496875 0.602298
319 1 -0.031303125 -0.00125 -0.005315625 0.560022
320 1 -0.031303125 -0.00125 -0.004134375 0.600937
321 1 -0.031303125 -0.00125 -0.002953125 0.561018
322 1 -0.031303125 -0.00125 -0.001771875 0.603117
323 1 -0.031303125 -0.00125 -0.000590625 0.567687
324 1 -0.031303125 -0.00125 0.000590625 0.609232
325 1 -0.031303125 -0.00125 0.001771875 0.57301
326 1 -0.031303125 -0.00125 0.002953125 0.618619
327 1 -0.031303125 -0.00125 0.004134375 0.574857
328 1 -0.031303125 -0.00125 0.005315625 0.620889
329 1 -0.031303125 -0.00125 0.006496875 0.568174
330 1 -0.031303125 -0.00125 0.007678125 0.60825
331 1 -0.031303125 -0.00125 0.008859375 0.547678
332 1 -0.031303125 -0.00125 0.010040625 0.575074
333 1 -0.031303125 -0.00125 0.011221875 0.50301
334 1 -0.031303125 -0.00125 0.012403125 0.512398
335 1 -0.031303125 -0.00125 0.013584375 0.441167
336 1 -0.031303125 -0.00125 0.014765625 0.423324
337 1 -0.031303125 -0.00125 0.015946875 0.365456
338 1 -0.031303125 -0.00125 0.017128125 0.320631
339 1 -0.031303125 -0.00125 0.018309375 0.28262
340 1 -0.031303125 -0.00125 0.019490625 0.22834
341 1 -0.031303125 0.000116666666667 -0.019490625 0.275251
342 1 -0.031303125 0.000116666666667 -0.018309375 0.265984
343 1 -0.031303125 0.000116666666667 -0.017128125 0.369968
344 1 -0.031303125 0.000116666666667 -0.015946875 0.391181
345 1 -0.031303125 0.000116666666667 -0.014765625 0.457876
346 1 -0.031303125 0.000116666666667 -0.013584375 0.495656
347 1 -0.031303125 0.000116666666667 -0.012403125 0.516654
348 1 -0.031303125 0.000116666666667 -0.011221875 0.56461
349 1 -0.031303125 0.000116666666667 -0.010040625 0.548615
350 1 -0.031303125 0.000116666666667 -0.008859375 0.594969
351 1 -0.031303125 0.000116666666667 -0.007678125 0.556472
352 1 -0.031303125 0.000116666666667 -0.006496875 0.602298
353 1 -0.031303125 0.000116666666667 -0.005315625 0.560022
354 1 -0.031303125 0.000116666666667 -0.004134375 0.600937
355 1 -0.031303125 0.000116666666667 -0.002953125 0.561018
356 1 -0.031303125 0.000116666666667 -0.001771875 0.603117
357 1 -0.031303125 0.000116666666667 -0.000590625 0.567687
358 1 -0.031303125 0.000116666666667 0.000590625 0.609232
359 1 -0.031303125 0.000116666666667 0.001771875 0.57301
360 1 -0.031303125 0.000116666666667 0.002953125 0.618619
361 1 -0.031303125 0.000116666666667 0.004134375 0.574857
362 1 -0.031303125 0.000116666666667 0.005315625 0.620889
363 1 -0.031303125 0.000116666666667 0.006496875 0.568174
364 1 -0.031303125 0.000116666666667 0.007678125 0.60825
365 1 -0.031303125 0.000116666666667 0.008859375 0.547678
366 1 -0.031303125 0.000116666666667 0.010040625 0.575074
367 1 -0.031303125 0.000116666666667 0.011221875 0.50301
368 1 -0.031303125 0.000116666666667 0.012403125 0.512398
369 1 -0.031303125 0.000116666666667 0.013584375 0.441167
370 1 -0.031303125 0.000116666666667 0.014765625 0.423324
371 1 -0.031303125 0.000116666666667 0.015946875 0.365456
372 1 -0.031303125 0.000116666666667 0.017128125 0.320631
373 1 -0.031303125 0.000116666666667 0.018309375 0.28262
374 1 -0.031303125 0.000116666666667 0.019490625 0.22834
375 1 -0.030121875 -0.00261666666667 -0.020671875 0.237057
376 1 -0.030121875 -0.00261666666667 -0.019490625 0.306882
377 1 -0.030121875 -0.00261666666667 -0.018309375 0.366293
378 1 -0.030121875 -0.00261666666667 -0.017128125 0.419747
379 1 -0.030121875 -0.00261666666667 -0.015946875 0.486793
380 1 -0.030121875 -0.00261666666667 -0.014765625 0.49847
381 1 -0.030121875 -0.00261666666667 -0.013584375 0.570888
382 1 -0.030121875 -0.00261666666667 -0.012403125 0.540445
383 1 -0.030121875 -0.00261666666667 -0.011221875 0.609069
384 1 -0.030121875 -0.00261666666667 -0.010040625 0.554938
385 1 -0.030121875 -0.00261666666667 -0.008859375 0.614306
386 1 -0.030121875 -0.00261666666667 -0.007678125 0.556101
387 1 -0.030121875 -0.00261666666667 -0.006496875 0.602846
388 1 -0.030121875 -0.00261666666667 -0.005315625 0.552002
389 1 -0.030121875 -0.00261666666667 -0.004134375 0.59234
390 1 -0.030121875 -0.00261666666667 -0.002953125 0.548272
391 1 -0.030121875 -0.00261666666667 -0.001771875 0.590897
392 1 -0.030121875 -0.00261666666667 -0.000590625 0.550706
393 1 -0.030121875 -0.00261666666667 0.000590625 0.597782
394 1 -0.030121875 -0.00261666666667 0.001771875 0.558198
395 1 -0.030121875 -0.00261666666667 0.002953125 0.610483
396 1 -0.030121875 -0.00261666666667 0.004134375 0.560425
397 1 -0.030121875 -0.00261666666667 0.005315625 0.62569
398 1 -0.030121875 -0.00261666666667 0.006496875 0.556772
399 1 -0.030121875 -0.00261666666667 0.007678125 0.629633
400 1 -0.030121875 -0.00261666666667 0.008859375 0.535414
401 1 -0.030121875 -0.00261666666667 0.010040625 0.61652
402 1 -0.030121875 -0.00261666666667 0.011221875 0.500627
403 1 -0.030121875 -0.00261666666667 0.012403125 0.577925
404 1 -0.030121875 -0.00261666666667 0.013584375 0.444197
405 1 -0.030121875 -0.00261666666667 0.014765625 0.503706
406 1 -0.030121875 -0.00261666666667 0.015946875 0.367032
407 1 -0.030121875 -0.00261666666667 0.017128125 0.39386
408 1 -0.030121875 -0.00261666666667 0.018309375 0.27789
409 1 -0.030121875 -0.00261666666667 0.019490625 0.284339
410 1 -0.030121875 -0.00261666666667 0.020671875 0.211059
411 1 -0.030121875 -0.00125 -0.020671875 0.237057
412 1 -0.030121875 -0.00125 -0.019490625 0.306882
413 1 -0.030121875 -0.00125 -0.018309375 0.366293
414 1 -0.030121875 -0.00125 -0.017128125 0.419747
415 1 -0.030121875 -0.00125 -0.015946875 0.486793
416 1 -0.030121875 -0.00125 -0.014765625 0.49847
417 1 -0.030121875 -0.00125 -0.013584375 0.570888
418 1 -0.030121875 -0.00125 -0.012403125 0.540445
419 1 -0.030121875 -0.00125 -0.011221875 0.609069
420 1 -0.030121875 -0.00125 -0.010040625 0.554938
421 1 -0.030121875 -0.00125 -0.008859375 0.614306
422 1 -0.030121875 -0.00125 -0.007678125 0.556101
423 1 -0.030121875 -0.00125 -0.006496875 0.602846
424 1 -0.030121875 -0.00125 -0.005315625 0.552002
425 1 -0.030121875 -0.00125 -0.004134375 0.59234
426 1 -0.030121875 -0.00125 -0.002953125 0.548272
427 1 -0.030121875 -0.00125 -0.001771875 0.590897
428 1 -0.030121875 -0.00125 -0.000590625 0.550706
429 1 -0.030121875 -0.00125 0.000590625 0.597782
430 1 -0.030121875 -0.00125 0.001771875 0.558198
431 1 -0.030121875 -0.00125 0.002953125 0.610483
432 1 -0.030121875 -0.00125 0.004134375 0.560425
433 1 -0.030121875 -0.00125 0.005315625 0.62569
434 1 -0.030121875 -0.00125 0.006496875 0.556772
435 1 -0.030121875 -0.00125 0.007678125 0.629633
436 1 -0.030121875 -0.00125 0.008859375 0.535414
437 1 -0.030121875 -0.00125 0.010040625 0.61652
438 1 -0.030121875 -0.00125 0.011221875 0.500627
439 1 -0.030121875 -0.00125 0.012403125 0.577925
440 1 -0.030121875 -0.00125 0.013584375 0.444197
441 1 -0.030121875 -0.00125 0.014765625 0.503706
442 1 -0.030121875 -0.00125 0.015946875 0.367032
443 1 -0.030121875 -0.00125 0.017128125 0.39386
444 1 -0.030121875 -0.00125 0.018309375 0.27789
445 1 -0.030121875 -0.00125 0.019490625 0.284339
446 1 -0.030121875 -0.00125 0.020671875 0.211059
447 1 -0.030121875 0.000116666666667 -0.020671875 0.237057
448 1 -0.030121875 0.000116666666667 -0.019490625 0.306882
449 1 -0.030121875 0.000116666666667 -0.018309375 0.366293
450 1 -0.030121875 0.000116666666667 -0.017128125 0.419747
451 1 -0.030121875 0.000116666666667 -0.015946875 0.486793
452 1 -0.030121875 0.000116666666667 -0.014765625 0.49847
453 1 -0.030121875 0.000116666666667 -0.013584375 0.570888
454 1 -0.030121875 0.000116666666667 -0.012403125 0.540445
455 1 -0.030121875 0.000116666666667 -0.011221875 0.609069
456 1 -0.030121875 0.000116666666667 -0.010040625 0.554938
457 1 -0.030121875 0.000116666666667 -0.008859375 0.614306
458 1 -0.030121875 0.000116666666667 -0.007678125 0.556101
459 1 -0.030121875 0.000116666666667 -0.006496875 0.602846
460 1 -0.030121875 0.000116666666667 -0.005315625 0.552002
461 1 -0.030121875 0.000116666666667 -0.004134375 0.59234
462 1 -0.030121875 0.000116666666667 -0.002953125 0.548272
463 1 -0.030121875 0.000116666666667 -0.001771875 0.590897
464 1 -0.030121875 0.000116666666667 -0.000590625 0.550706
465 1 -0.030121875 0.000116666666667 0.000590625 0.597782
466 1 -0.030121875 0.000116666666667 0.001771875 0.558198
467 1 -0.030121875 0.000116666666667 0.002953125 0.610483
468 1 -0.030121875 0.000116666666667 0.004134375 0.560425
469 1 -0.030121875 0.000116666666667 0.005315625 0.62569
470 1 -0.030121875 0.000116666666667 0.006496875 0.556772
471 1 -0.030121875 0.000116666666667 0.007678125 0.629633
472 1 -0.030121875 0.000116666666667 0.008859375 0.535414
473 1 -0.030121875 0.000116666666667 0.010040625 0.61652
474 1 -0.030121875 0.000116666666667 0.011221875 0.500627
475 1 -0.030121875 0.000116666666667 0.012403125 0.577925
476 1 -0.030121875 0.000116666666667 0.013584375 0.444197
477 1 -0.030121875 0.000116666666667 0.014765625 0.503706
478 1 -0.030121875 0.000116666666667 0.015946875 0.367032
479 1 -0.030121875 0.000116666666667 0.017128125 0.39386
480 1 -0.030121875 0.000116666666667 0.018309375 0.27789
481 1 -0.030121875 0.000116666666667 0.019490625 0.284339
482 1 -0.030121875 0.000116666666667 0.020671875 0.211059
483 1 -0.028940625 -0.00261666666667 -0.021853125 0.29729
484 1 -0.028940625 -0.00261666666667 -0.020671875 0.296272
485 1 -0.028940625 -0.00261666666667 -0.019490625 0.411878
486 1 -0.028940625 -0.00261666666667 -0.018309375 0.445388
487 1 -0.028940625 -0.00261666666667 -0.017128125 0.510811
488 1 -0.028940625 -0.00261666666667 -0.015946875 0.564487
489 1 -0.028940625 -0.00261666666667 -0.014765625 0.567097
490 1 -0.028940625 -0.00261666666667 -0.013584375 0.611196
491 1 -0.028940625 -0.00261666666667 -0.012403125 0.582608
492 1 -0.028940625 -0.00261666666667 -0.011221875 0.618059
493 1 -0.028940625 -0.00261666666667 -0.010040625 0.588433
494 1 -0.028940625 -0.00261666666667 -0.008859375 0.611517
495 1 -0.028940625 -0.00261666666667 -0.007678125 0.585151
496 1 -0.028940625 -0.00261666666667 -0.006496875 0.603472
497 1 -0.028940625 -0.00261666666667 -0.005315625 0.584569
498 1 -0.028940625 -0.00261666666667 -0.004134375 0.598054
499 1 -0.028940625 -0.00261666666667 -0.002953125 0.584757
500 1 -0.028940625 -0.00261666666667 -0.001771875 0.599661
501 1 -0.028940625 -0.00261666666667 -0.000590625 0.591707
502 1 -0.028940625 -0.00261666666667 0.000590625 0.606918
503 1 -0.028940625 -0.00261666666667 0.001771875 0.598682
504 1 -0.028940625 -0.00261666666667 0.002953125 0.618084
505 1 -0.028940625 -0.00261666666667 0.004134375 0.602965
506 1 -0.028940625 -0.00261666666667 0.005315625 0.626085
507 1 -0.028940625 -0.00261666666667 0.006496875 0.601558
508 1 -0.028940625 -0.00261666666667 0.007678125 0.628651
509 1 -0.028940625 -0.00261666666667 0.008859375 0.590611
510 1 -0.028940625 -0.00261666666667 0.010040625 0.624687
511 1 -0.028940625 -0.00261666666667 0.011221875 0.569195
512 1 -0.028940625 -0.00261666666667 0.012403125 0.607971
513 1 -0.028940625 -0.00261666666667 0.013584375 0.53317
514 1 -0.028940625 -0.00261666666667 0.014765625 0.558703
515 1 -0.028940625 -0.00261666666667 0.015946875 0.470619
516 1 -0.028940625 -0.00261666666667 0.017128125 0.47171
517 1 -0.028940625 -0.00261666666667 0.018309375 0.391725
518 1 -0.028940625 -0.00261666666667 0.019490625 0.370474
519 1 -0.028940625 -0.00261666666667 0.020671875 0.320354
520 1 -0.028940625 -0.00261666666667 0.021853125 0.285243
521 1 -0.028940625 -0.00125 -0.021853125 0.29729
522 1 -0.028940625 -0.00125 -0.020671875 0.296272
523 1 -0.028940625 -0.00125 -0.019490625 0.411878
524 1 -0.028940625 -0.00125 -0.018309375 0.445388
525 1 -0.028940625 -0.00125 -0.017128125 0.510811
526 1 -0.028940625 -0.00125 -0.015946875 0.564487
527 1 -0.028940625 -0.00125 -0.014765625 0.567097
528 1 -0.028940625 -0.00125 -0.013584375 0.611196
529 1 -0.028940625 -0.00125 -0.012403125 0.582608
530 1 -0.028940625 -0.00125 -0.011221875 0.618059
531 1 -0.028940625 -0.00125 -0.010040625 0.588433
532 1 -0.028940625 -0.00125 -0.008859375 0.611517
533 1 -0.028940625 -0.00125 -0.007678125 0.585151
534 1 -0.028940625 -0.00125 -0.006496875 0.603472
535 1 -0.028940625 -0.00125 -0.005315625 0.584569
536 1 -0.028940625 -0.00125 -0.004134375 0.598054
537 1 -0.028940625 -0.00125 -0.002953125 0.584757