ITEM: TIMESTEP
0
ITEM: NUMBER OF ATOMS
9240
ITEM: BOX BOUNDS ss ss ss
-3.7007399999999996e-02 3.7007399999999996e-02
-2.0002499999999999e-03 2.5000000000000004e-07
-3.7007399999999996e-02 3.7007399999999996e-02
ITEM: ATOMS id type x y z c_1
0 1 -0.037209375 -0.00261666666667 -0.000590625 0.267459
1 1 -0.037209375 -0.00125 -0.000590625 0.267459
2 1 -0.037209375 0.000116666666667 -0.000590625 0.267459
3 1 -0.036028125 -0.00261666666667 -0.007678125 0.305551
4 1 -0.036028125 -0.00261666666667 -0.006496875 0.187611
5 1 -0.036028125 -0.00261666666667 -0.005315625 0.306441
6 1 -0.036028125 -0.00261666666667 -0.004134375 0.187632
7 1 -0.036028125 -0.00261666666667 -0.002953125 0.306474
8 1 -0.036028125 -0.00261666666667 -0.001771875 0.188241
9 1 -0.036028125 -0.00261666666667 -0.000590625 0.306637
10 1 -0.036028125 -0.00261666666667 0.000590625 0.189473
11 1 -0.036028125 -0.00261666666667 0.001771875 0.305637
12 1 -0.036028125 -0.00261666666667 0.002953125 0.189905
13 1 -0.036028125 -0.00261666666667 0.004134375 0.303488
14 1 -0.036028125 -0.00261666666667 0.005315625 0.189075
15 1 -0.036028125 -0.00261666666667 0.006496875 0.300065
16 1 -0.036028125 -0.00261666666667 0.007678125 0.187544
17 1 -0.036028125 -0.00125 -0.007678125 0.305551
18 1 -0.036028125 -0.00125 -0.006496875 0.187611
19 1 -0.036028125 -0.00125 -0.005315625 0.306441
20 1 -0.036028125 -0.00125 -0.004134375 0.187632
21 1 -0.036028125 -0.00125 -0.002953125 0.306474
22 1 -0.036028125 -0.00125 -0.001771875 0.188241
23 1 -0.036028125 -0.00125 -0.000590625 0.306637
24 1 -0.036028125 -0.00125 0.000590625 0.189473
25 1 -0.036028125 -0.00125 0.001771875 0.305637
26 1 -0.036028125 -0.00125 0.002953125 0.189905
27 1 -0.036028125 -0.00125 0.004134375 0.303488
28 1 -0.036028125 -0.00125 0.005315625 0.189075
29 1 -0.036028125 -0.00125 0.006496875 0.300065
30 1 -0.036028125 -0.00125 0.007678125 0.187544
31 1 -0.036028125 0.000116666666667 -0.007678125 0.305551
32 1 -0.036028125 0.000116666666667 -0.006496875 0.187611
33 1 -0.036028125 0.000116666666667 -0.005315625 0.306441
34 1 -0.036028125 0.000116666666667 -0.004134375 0.187632
35 1 -0.036028125 0.000116666666667 -0.002953125 0.306474
36 1 -0.036028125 0.000116666666667 -0.001771875 0.188241
37 1 -0.036028125 0.000116666666667 -0.000590625 0.306637
38 1 -0.036028125 0.000116666666667 0.000590625 0.189473
39 1 -0.036028125 0.000116666666667 0.001771875 0.305637
40 1 -0.036028125 0.000116666666667 0.002953125 0.189905
41 1 -0.036028125 0.000116666666667 0.004134375 0.303488
42 1 -0.036028125 0.000116666666667 0.005315625 0.189075
43 1 -0.036028125 0.000116666666667 0.006496875 0.300065
44 1 -0.036028125 0.000116666666667 0.007678125 0.187544
45 1 -0.034846875 -0.00261666666667 -0.011221875 0.33091
46 1 -0.034846875 -0.00261666666667 -0.010040625 0.121152
47 1 -0.034846875 -0.00261666666667 -0.008859375 0.345656
48 1 -0.034846875 -0.00261666666667 -0.007678125 0.121684
49 1 -0.034846875 -0.00261666666667 -0.006496875 0.360208
50 1 -0.034846875 -0.00261666666667 -0.005315625 0.122719
51 1 -0.034846875 -0.00261666666667 -0.004134375 0.37262
52 1 -0.034846875 -0.00261666666667 -0.002953125 0.124533
53 1 -0.034846875 -0.00261666666667 -0.001771875 0.381296
54 1 -0.034846875 -0.00261666666667 -0.000590625 0.126419
55 1 -0.034846875 -0.00261666666667 0.000590625 0.385764
56 1 -0.034846875 -0.00261666666667 0.001771875 0.12786
57 1 -0.034846875 -0.00261666666667 0.002953125 0.384777
58 1 -0.034846875 -0.00261666666667 0.004134375 0.126855
59 1 -0.034846875 -0.00261666666667 0.005315625 0.377168
60 1 -0.034846875 -0.00261666666667 0.006496875 0.124728
61 1 -0.034846875 -0.00261666666667 0.007678125 0.364536
62 1 -0.034846875 -0.00261666666667 0.008859375 0.122171
63 1 -0.034846875 -0.00261666666667 0.010040625 0.348804
64 1 -0.034846875 -0.00261666666667 0.011221875 0.120739
65 1 -0.034846875 -0.00125 -0.011221875 0.33091
66 1 -0.034846875 -0.00125 -0.010040625 0.121152
67 1 -0.034846875 -0.00125 -0.008859375 0.345656
68 1 -0.034846875 -0.00125 -0.007678125 0.121684
69 1 -0.034846875 -0.00125 -0.006496875 0.360208
70 1 -0.034846875 -0.00125 -0.005315625 0.122719
71 1 -0.034846875 -0.00125 -0.004134375 0.37262
72 1 -0.034846875 -0.00125 -0.002953125 0.124533
73 1 -0.034846875 -0.00125 -0.001771875 0.381296
74 1 -0.034846875 -0.00125 -0.000590625 0.126419
75 1 -0.034846875 -0.00125 0.000590625 0.385764
76 1 -0.034846875 -0.00125 0.001771875 0.12786
77 1 -0.034846875 -0.00125 0.002953125 0.384777
78 1 -0.034846875 -0.00125 0.004134375 0.126855
79 1 -0.034846875 -0.00125 0.005315625 0.377168
80 1 -0.034846875 -0.00125 0.006496875 0.124728
81 1 -0.034846875 -0.00125 0.007678125 0.364536
82 1 -0.034846875 -0.00125 0.008859375 0.122171
83 1 -0.034846875 -0.00125 0.010040625 0.348804
84 1 -0.034846875 -0.00125 0.011221875 0.120739
85 1 -0.034846875 0.000116666666667 -0.011221875 0.33091
86 1 -0.034846875 0.000116666666667 -0.010040625 0.121152
87 1 -0.034846875 0.000116666666667 -0.008859375 0.345656
88 1 -0.034846875 0.000116666666667 -0.007678125 0.121684
89 1 -0.034846875 0.000116666666667 -0.006496875 0.360208
90 1 -0.034846875 0.000116666666667 -0.005315625 0.122719
91 1 -0.034846875 0.000116666666667 -0.004134375 0.37262
92 1 -0.034846875 0.000116666666667 -0.002953125 0.124533
93 1 -0.034846875 0.000116666666667 -0.001771875 0.381296
94 1 -0.034846875 0.000116666666667 -0.000590625 0.126419
95 1 -0.034846875 0.000116666666667 0.000590625 0.385764
96 1 -0.034846875 0.000116666666667 0.001771875 0.12786
97 1 -0.034846875 0.000116666666667 0.002953125 0.384777
98 1 -0.034846875 0.000116666666667 0.004134375 0.126855
99 1 -0.034846875 0.000116666666667 0.005315625 0.377168
100 1 -0.034846875 0.000116666666667 0.006496875 0.124728
101 1 -0.034846875 0.000116666666667 0.007678125 0.364536
102 1 -0.034846875 0.000116666666667 0.008859375 0.122171
103 1 -0.034846875 0.000116666666667 0.010040625 0.348804
104 1 -0.034846875 0.000116666666667 0.011221875 0.120739
105 1 -0.033665625 -0.00261666666667 -0.013584375 0.137622
106 1 -0.033665625 -0.00261666666667 -0.012403125 0.250935
107 1 -0.033665625 -0.00261666666667 -0.011221875 0.138271
108 1 -0.033665625 -0.00261666666667 -0.010040625 0.256452
109 1 -0.033665625 -0.00261666666667 -0.008859375 0.140603
110 1 -0.033665625 -0.00261666666667 -0.007678125 0.261401
111 1 -0.033665625 -0.00261666666667 -0.006496875 0.1436
112 1 -0.033665625 -0.00261666666667 -0.005315625 0.266524
113 1 -0.033665625 -0.00261666666667 -0.004134375 0.146651
114 1 -0.033665625 -0.00261666666667 -0.002953125 0.269731
115 1 -0.033665625 -0.00261666666667 -0.001771875 0.149718
116 1 -0.033665625 -0.00261666666667 -0.000590625 0.271595
117 1 -0.033665625 -0.00261666666667 0.000590625 0.152439
118 1 -0.033665625 -0.00261666666667 0.001771875 0.270764
119 1 -0.033665625 -0.00261666666667 0.002953125 0.153395
120 1 -0.033665625 -0.00261666666667 0.004134375 0.266463
121 1 -0.033665625 -0.00261666666667 0.005315625 0.152144
122 1 -0.033665625 -0.00261666666667 0.006496875 0.259731
123 1 -0.033665625 -0.00261666666667 0.007678125 0.149717
124 1 -0.033665625 -0.00261666666667 0.008859375 0.25261
125 1 -0.033665625 -0.00261666666667 0.010040625 0.146887
126 1 -0.033665625 -0.00261666666667 0.011221875 0.246775
127 1 -0.033665625 -0.00261666666667 0.012403125 0.145442
128 1 -0.033665625 -0.00261666666667 0.013584375 0.243136
129 1 -0.033665625 -0.00125 -0.013584375 0.137622
130 1 -0.033665625 -0.00125 -0.012403125 0.250935
131 1 -0.033665625 -0.00125 -0.011221875 0.138271
132 1 -0.033665625 -0.00125 -0.010040625 0.256452
133 1 -0.033665625 -0.00125 -0.008859375 0.140603
134 1 -0.033665625 -0.00125 -0.007678125 0.261401
135 1 -0.033665625 -0.00125 -0.006496875 0.1436
136 1 -0.033665625 -0.00125 -0.005315625 0.266524
137 1 -0.033665625 -0.00125 -0.004134375 0.146651
138 1 -0.033665625 -0.00125 -0.002953125 0.269731
139 1 -0.033665625 -0.00125 -0.001771875 0.149718
140 1 -0.033665625 -0.00125 -0.000590625 0.271595
141 1 -0.033665625 -0.00125 0.000590625 0.152439
142 1 -0.033665625 -0.00125 0.001771875 0.270764
143 1 -0.033665625 -0.00125 0.002953125 0.153395
144 1 -0.033665625 -0.00125 0.004134375 0.266463
145 1 -0.033665625 -0.00125 0.005315625 0.152144
146 1 -0.033665625 -0.00125 0.006496875 0.259731
147 1 -0.033665625 -0.00125 0.007678125 0.149717
148 1 -0.033665625 -0.00125 0.008859375 0.25261
149 1 -0.033665625 -0.00125 0.010040625 0.146887
150 1 -0.033665625 -0.00125 0.011221875 0.246775
151 1 -0.033665625 -0.00125 0.012403125 0.145442
152 1 -0.033665625 -0.00125 0.013584375 0.243136
153 1 -0.033665625 0.000116666666667 -0.013584375 0.137622
154 1 -0.033665625 0.000116666666667 -0.012403125 0.250935
155 1 -0.033665625 0.000116666666667 -0.011221875 0.138271
156 1 -0.033665625 0.000116666666667 -0.010040625 0.256452
157 1 -0.033665625 0.000116666666667 -0.008859375 0.140603
158 1 -0.033665625 0.000116666666667 -0.007678125 0.261401
159 1 -0.033665625 0.000116666666667 -0.006496875 0.1436
160 1 -0.033665625 0.000116666666667 -0.005315625 0.266524
161 1 -0.033665625 0.000116666666667 -0.004134375 0.146651
162 1 -0.033665625 0.000116666666667 -0.002953125 0.269731
163 1 -0.033665625 0.000116666666667 -0.001771875 0.149718
164 1 -0.033665625 0.000116666666667 -0.000590625 0.271595
165 1 -0.033665625 0.000116666666667 0.000590625 0.152439
166 1 -0.033665625 0.000116666666667 0.001771875 0.270764
167 1 -0.033665625 0.000116666666667 0.002953125 0.153395
168 1 -0.033665625 0.000116666666667 0.004134375 0.266463
169 1 -0.033665625 0.000116666666667 0.005315625 0.152144
170 1 -0.033665625 0.000116666666667 0.006496875 0.259731
171 1 -0.033665625 0.000116666666667 0.007678125 0.149717
172 1 -0.033665625 0.000116666666667 0.008859375 0.25261
173 1 -0.033665625 0.000116666666667 0.010040625 0.146887
174 1 -0.033665625 0.000116666666667 0.011221875 0.246775
175 1 -0.033665625 0.000116666666667 0.012403125 0.145442
176 1 -0.033665625 0.000116666666667 0.013584375 0.243136
177 1 -0.032484375 -0.00261666666667 -0.018309375 0.275361
178 1 -0.032484375 -0.00261666666667 -0.017128125 0.0835641
179 1 -0.032484375 -0.00261666666667 -0.015946875 0.292945
180 1 -0.032484375 -0.00261666666667 -0.014765625 0.0826324
181 1 -0.032484375 -0.00261666666667 -0.013584375 0.316691
182 1 -0.032484375 -0.00261666666667 -0.012403125 0.0831765
183 1 -0.032484375 -0.00261666666667 -0.011221875 0.346291
184 1 -0.032484375 -0.00261666666667 -0.010040625 0.086025
185 1 -0.032484375 -0.00261666666667 -0.008859375 0.373911
186 1 -0.032484375 -0.00261666666667 -0.007678125 0.0898547
187 1 -0.032484375 -0.00261666666667 -0.006496875 0.400154
188 1 -0.032484375 -0.00261666666667 -0.005315625 0.093667
189 1 -0.032484375 -0.00261666666667 -0.004134375 0.423095
190 1 -0.032484375 -0.00261666666667 -0.002953125 0.0974337
191 1 -0.032484375 -0.00261666666667 -0.001771875 0.439766
192 1 -0.032484375 -0.00261666666667 -0.000590625 0.100587
193 1 -0.032484375 -0.00261666666667 0.000590625 0.447994
194 1 -0.032484375 -0.00261666666667 0.001771875 0.102263
195 1 -0.032484375 -0.00261666666667 0.002953125 0.445362
196 1 -0.032484375 -0.00261666666667 0.004134375 0.100253
197 1 -0.032484375 -0.00261666666667 0.005315625 0.429408
198 1 -0.032484375 -0.00261666666667 0.006496875 0.0969687
199 1 -0.032484375 -0.00261666666667 0.007678125 0.403177
200 1 -0.032484375 -0.00261666666667 0.008859375 0.0929131
201 1 -0.032484375 -0.00261666666667 0.010040625 0.373836
202 1 -0.032484375 -0.00261666666667 0.011221875 0.089104
203 1 -0.032484375 -0.00261666666667 0.012403125 0.346078
204 1 -0.032484375 -0.00261666666667 0.013584375 0.0867694
205 1 -0.032484375 -0.00261666666667 0.014765625 0.31922
206 1 -0.032484375 -0.00261666666667 0.015946875 0.0855113
207 1 -0.032484375 -0.00261666666667 0.017128125 0.296326
208 1 -0.032484375 -0.00261666666667 0.018309375 0.0862893
209 1 -0.032484375 -0.00125 -0.018309375 0.275361
210 1 -0.032484375 -0.00125 -0.017128125 0.0835641
211 1 -0.032484375 -0.00125 -0.015946875 0.292945
212 1 -0.032484375 -0.00125 -0.014765625 0.0826324
213 1 -0.032484375 -0.00125 -0.013584375 0.316691
214 1 -0.032484375 -0.00125 -0.012403125 0.0831765
215 1 -0.032484375 -0.00125 -0.011221875 0.346291
216 1 -0.032484375 -0.00125 -0.010040625 0.086025
217 1 -0.032484375 -0.00125 -0.008859375 0.373911
218 1 -0.032484375 -0.00125 -0.007678125 0.0898547
219 1 -0.032484375 -0.00125 -0.006496875 0.400154
220 1 -0.032484375 -0.00125 -0.005315625 0.093667
221 1 -0.032484375 -0.00125 -0.004134375 0.423095
222 1 -0.032484375 -0.00125 -0.002953125 0.0974337
223 1 -0.032484375 -0.00125 -0.001771875 0.439766
224 1 -0.032484375 -0.00125 -0.000590625 0.100587
225 1 -0.032484375 -0.00125 0.000590625 0.447994
226 1 -0.032484375 -0.00125 0.001771875 0.102263
227 1 -0.032484375 -0.00125 0.002953125 0.445362
228 1 -0.032484375 -0.00125 0.004134375 0.100253
229 1 -0.032484375 -0.00125 0.005315625 0.429408
230 1 -0.032484375 -0.00125 0.006496875 0.0969687
231 1 -0.032484375 -0.00125 0.007678125 0.403177
232 1 -0.032484375 -0.00125 0.008859375 0.0929131
233 1 -0.032484375 -0.00125 0.010040625 0.373836
234 1 -0.032484375 -0.00125 0.011221875 0.089104
235 1 -0.032484375 -0.00125 0.012403125 0.346078
236 1 -0.032484375 -0.00125 0.013584375 0.0867694
237 1 -0.032484375 -0.00125 0.014765625 0.31922
238 1 -0.032484375 -0.00125 0.015946875 0.0855113
239 1 -0.032484375 -0.00125 0.017128125 0.296326
240 1 -0.032484375 -0.00125 0.018309375 0.0862893
241 1 -0.032484375 0.000116666666667 -0.018309375 0.275361
242 1 -0.032484375 0.000116666666667 -0.017128125 0.0835641
243 1 -0.032484375 0.000116666666667 -0.015946875 0.292945
244 1 -0.032484375 0.000116666666667 -0.014765625 0.0826324
245 1 -0.032484375 0.000116666666667 -0.013584375 0.316691
246 1 -0.032484375 0.000116666666667 -0.012403125 0.0831765
247 1 -0.032484375 0.000116666666667 -0.011221875 0.346291
248 1 -0.032484375 0.000116666666667 -0.010040625 0.086025
249 1 -0.032484375 0.000116666666667 -0.008859375 0.373911
250 1 -0.032484375 0.000116666666667 -0.007678125 0.0898547
251 1 -0.032484375 0.000116666666667 -0.006496875 0.400154
252 1 -0.032484375 0.000116666666667 -0.005315625 0.093667
253 1 -0.032484375 0.000116666666667 -0.004134375 0.423095
254 1 -0.032484375 0.000116666666667 -0.002953125 0.0974337
255 1 -0.032484375 0.000116666666667 -0.001771875 0.439766
256 1 -0.032484375 0.000116666666667 -0.000590625 0.100587
257 1 -0.032484375 0.000116666666667 0.000590625 0.447994
258 1 -0.032484375 0.000116666666667 0.001771875 0.102263
259 1 -0.032484375 0.000116666666667 0.002953125 0.445362
260 1 -0.032484375 0.000116666666667 0.004134375 0.100253
261 1 -0.032484375 0.000116666666667 0.005315625 0.429408
262 1 -0.032484375 0.000116666666667 0.006496875 0.0969687
263 1 -0.032484375 0.000116666666667 0.007678125 0.403177
264 1 -0.032484375 0.000116666666667 0.008859375 0.0929131
265 1 -0.032484375 0.000116666666667 0.010040625 0.373836
266 1 -0.032484375 0.000116666666667 0.011221875 0.089104
267 1 -0.032484375 0.000116666666667 0.012403125 0.346078
268 1 -0.032484375 0.000116666666667 0.013584375 0.0867694
269 1 -0.032484375 0.000116666666667 0.014765625 0.31922
270 1 -0.032484375 0.000116666666667 0.015946875 0.0855113
271 1 -0.032484375 0.000116666666667 0.017128125 0.296326
272 1 -0.032484375 0.000116666666667 0.018309375 0.0862893
273 1 -0.031303125 -0.00261666666667 -0.019490625 0.207352
274 1 -0.031303125 -0.00261666666667 -0.018309375 0.109663
275 1 -0.031303125 -0.00261666666667 -0.017128125 0.209919
276 1 -0.031303125 -0.00261666666667 -0.015946875 0.109489
277 1 -0.031303125 -0.00261666666667 -0.014765625 0.2161
278 1 -0.031303125 -0.00261666666667 -0.013584375 0.112228
279 1 -0.031303125 -0.00261666666667 -0.012403125 0.224332
280 1 -0.031303125 -0.00261666666667 -0.011221875 0.11617
281 1 -0.031303125 -0.00261666666667 -0.010040625 0.235502
282 1 -0.031303125 -0.00261666666667 -0.008859375 0.120569
283 1 -0.031303125 -0.00261666666667 -0.007678125 0.244872
284 1 -0.031303125 -0.00261666666667 -0.006496875 0.125761
285 1 -0.031303125 -0.00261666666667 -0.005315625 0.253473
286 1 -0.031303125 -0.00261666666667 -0.004134375 0.13127
287 1 -0.031303125 -0.00261666666667 -0.002953125 0.258539
288 1 -0.031303125 -0.00261666666667 -0.001771875 0.136714
289 1 -0.031303125 -0.00261666666667 -0.000590625 0.261589
290 1 -0.031303125 -0.00261666666667 0.000590625 0.141053
291 1 -0.031303125 -0.00261666666667 0.001771875 0.260255
292 1 -0.031303125 -0.00261666666667 0.002953125 0.142722
293 1 -0.031303125 -0.00261666666667 0.004134375 0.253216
294 1 -0.031303125 -0.00261666666667 0.005315625 0.140238
295 1 -0.031303125 -0.00261666666667 0.006496875 0.242077
296 1 -0.031303125 -0.00261666666667 0.007678125 0.135276
297 1 -0.031303125 -0.00261666666667 0.008859375 0.229923
298 1 -0.031303125 -0.00261666666667 0.010040625 0.13008
299 1 -0.031303125 -0.00261666666667 0.011221875 0.218335
300 1 -0.031303125 -0.00261666666667 0.012403125 0.12551
301 1 -0.031303125 -0.00261666666667 0.013584375 0.210537
302 1 -0.031303125 -0.00261666666667 0.014765625 0.12219
303 1 -0.031303125 -0.00261666666667 0.015946875 0.206106
304 1 -0.031303125 -0.00261666666667 0.017128125 0.122014
305 1 -0.031303125 -0.00261666666667 0.018309375 0.20577
306 1 -0.031303125 -0.00261666666667 0.019490625 0.124375
307 1 -0.031303125 -0.00125 -0.019490625 0.207352
308 1 -0.031303125 -0.00125 -0.018309375 0.109663
309 1 -0.031303125 -0.00125 -0.017128125 0.209919
310 1 -0.031303125 -0.00125 -0.015946875 0.109489
311 1 -0.031303125 -0.00125 -0.014765625 0.2161
312 1 -0.031303125 -0.00125 -0.013584375 0.112228
313 1 -0.031303125 -0.00125 -0.012403125 0.224332
314 1 -0.031303125 -0.00125 -0.011221875 0.11617
315 1 -0.031303125 -0.00125 -0.010040625 0.235502
316 1 -0.031303125 -0.00125 -0.008859375 0.120569
317 1 -0.031303125 -0.00125 -0.007678125 0.244872
318 1 -0.031303125 -0.00125 -0.006496875 0.125761
319 1 -0.031303125 -0.00125 -0.005315625 0.253473
320 1 -0.031303125 -0.00125 -0.004134375 0.13127
321 1 -0.031303125 -0.00125 -0.002953125 0.258539
322 1 -0.031303125 -0.00125 -0.001771875 0.136714
323 1 -0.031303125 -0.00125 -0.000590625 0.261589
324 1 -0.031303125 -0.00125 0.000590625 0.141053
325 1 -0.031303125 -0.00125 0.001771875 0.260255
326 1 -0.031303125 -0.00125 0.002953125 0.142722
327 1 -0.031303125 -0.00125 0.004134375 0.253216
328 1 -0.031303125 -0.00125 0.005315625 0.140238
329 1 -0.031303125 -0.00125 0.006496875 0.242077
330 1 -0.031303125 -0.00125 0.007678125 0.135276
331 1 -0.031303125 -0.00125 0.008859375 0.229923
332 1 -0.031303125 -0.00125 0.010040625 0.13008
333 1 -0.031303125 -0.00125 0.011221875 0.218335
334 1 -0.031303125 -0.00125 0.012403125 0.12551
335 1 -0.031303125 -0.00125 0.013584375 0.210537
336 1 -0.031303125 -0.00125 0.014765625 0.12219
337 1 -0.031303125 -0.00125 0.015946875 0.206106
338 1 -0.031303125 -0.00125 0.017128125 0.122014
339 1 -0.031303125 -0.00125 0.018309375 0.20577
340 1 -0.031303125 -0.00125 0.019490625 0.124375
341 1 -0.031303125 0.000116666666667 -0.019490625 0.207352
342 1 -0.031303125 0.000116666666667 -0.018309375 0.109663
343 1 -0.031303125 0.000116666666667 -0.017128125 0.209919
344 1 -0.031303125 0.000116666666667 -0.015946875 0.109489
345 1 -0.031303125 0.000116666666667 -0.014765625 0.2161
346 1 -0.031303125 0.000116666666667 -0.013584375 0.112228
347 1 -0.031303125 0.000116666666667 -0.012403125 0.224332
348 1 -0.031303125 0.000116666666667 -0.011221875 0.11617
349 1 -0.031303125 0.000116666666667 -0.010040625 0.235502
350 1 -0.031303125 0.000116666666667 -0.008859375 0.120569
351 1 -0.031303125 0.000116666666667 -0.007678125 0.244872
352 1 -0.031303125 0.000116666666667 -0.006496875 0.125761
353 1 -0.031303125 0.000116666666667 -0.005315625 0.253473
354 1 -0.031303125 0.000116666666667 -0.004134375 0.13127
355 1 -0.031303125 0.000116666666667 -0.002953125 0.258539
356 1 -0.031303125 0.000116666666667 -0.001771875 0.136714
357 1 -0.031303125 0.000116666666667 -0.000590625 0.261589
358 1 -0.031303125 0.000116666666667 0.000590625 0.141053
359 1 -0.031303125 0.000116666666667 0.001771875 0.260255
360 1 -0.031303125 0.000116666666667 0.002953125 0.142722
361 1 -0.031303125 0.000116666666667 0.004134375 0.253216
362 1 -0.031303125 0.000116666666667 0.005315625 0.140238
363 1 -0.031303125 0.000116666666667 0.006496875 0.242077
364 1 -0.031303125 0.000116666666667 0.007678125 0.135276
365 1 -0.031303125 0.000116666666667 0.008859375 0.229923
366 1 -0.031303125 0.000116666666667 0.010040625 0.13008
367 1 -0.031303125 0.000116666666667 0.011221875 0.218335
368 1 -0.031303125 0.000116666666667 0.012403125 0.12551
369 1 -0.031303125 0.000116666666667 0.013584375 0.210537
370 1 -0.031303125 0.000116666666667 0.014765625 0.12219
371 1 -0.031303125 0.000116666666667 0.015946875 0.206106
372 1 -0.031303125 0.000116666666667 0.017128125 0.122014
373 1 -0.031303125 0.000116666666667 0.018309375 0.20577
374 1 -0.031303125 0.000116666666667 0.019490625 0.124375
375 1 -0.030121875 -0.00261666666667 -0.020671875 0.278226
376 1 -0.030121875 -0.00261666666667 -0.019490625 0.0701589
377 1 -0.030121875 -0.00261666666667 -0.018309375 0.304957
378 1 -0.030121875 -0.00261666666667 -0.017128125 0.0697822
379 1 -0.030121875 -0.00261666666667 -0.015946875 0.343832
380 1 -0.030121875 -0.00261666666667 -0.014765625 0.0719762
381 1 -0.030121875 -0.00261666666667 -0.013584375 0.391591
382 1 -0.030121875 -0.00261666666667 -0.012403125 0.0777903
383 1 -0.030121875 -0.00261666666667 -0.011221875 0.447879
384 1 -0.030121875 -0.00261666666667 -0.010040625 0.0860585
385 1 -0.030121875 -0.00261666666667 -0.008859375 0.501882
386 1 -0.030121875 -0.00261666666667 -0.007678125 0.0947196
387 1 -0.030121875 -0.00261666666667 -0.006496875 0.547189
388 1 -0.030121875 -0.00261666666667 -0.005315625 0.102128
389 1 -0.030121875 -0.00261666666667 -0.004134375 0.581999
390 1 -0.030121875 -0.00261666666667 -0.002953125 0.108924
391 1 -0.030121875 -0.00261666666667 -0.001771875 0.603213
392 1 -0.030121875 -0.00261666666667 -0.000590625 0.113425
393 1 -0.030121875 -0.00261666666667 0.000590625 0.609977
394 1 -0.030121875 -0.00261666666667 0.001771875 0.114836
395 1 -0.030121875 -0.00261666666667 0.002953125 0.599965
396 1 -0.030121875 -0.00261666666667 0.004134375 0.109638
397 1 -0.030121875 -0.00261666666667 0.005315625 0.569621
398 1 -0.030121875 -0.00261666666667 0.006496875 0.101894
399 1 -0.030121875 -0.00261666666667 0.007678125 0.522106
400 1 -0.030121875 -0.00261666666667 0.008859375 0.0927791
401 1 -0.030121875 -0.00261666666667 0.010040625 0.466287
402 1 -0.030121875 -0.00261666666667 0.011221875 0.0855498
403 1 -0.030121875 -0.00261666666667 0.012403125 0.412132
404 1 -0.030121875 -0.00261666666667 0.013584375 0.0795572
405 1 -0.030121875 -0.00261666666667 0.014765625 0.365998
406 1 -0.030121875 -0.00261666666667 0.015946875 0.0752137
407 1 -0.030121875 -0.00261666666667 0.017128125 0.327241
408 1 -0.030121875 -0.00261666666667 0.018309375 0.074614
409 1 -0.030121875 -0.00261666666667 0.019490625 0.293635
410 1 -0.030121875 -0.00261666666667 0.020671875 0.0758843
411 1 -0.030121875 -0.00125 -0.020671875 0.278226
412 1 -0.030121875 -0.00125 -0.019490625 0.0701589
413 1 -0.030121875 -0.00125 -0.018309375 0.304957
414 1 -0.030121875 -0.00125 -0.017128125 0.0697822
415 1 -0.030121875 -0.00125 -0.015946875 0.343832
416 1 -0.030121875 -0.00125 -0.014765625 0.0719762
417 1 -0.030121875 -0.00125 -0.013584375 0.391591
418 1 -0.030121875 -0.00125 -0.012403125 0.0777903
419 1 -0.030121875 -0.00125 -0.011221875 0.447879
420 1 -0.030121875 -0.00125 -0.010040625 0.0860585
421 1 -0.030121875 -0.00125 -0.008859375 0.501882
422 1 -0.030121875 -0.00125 -0.007678125 0.0947196
423 1 -0.030121875 -0.00125 -0.006496875 0.547189
424 1 -0.030121875 -0.00125 -0.005315625 0.102128
425 1 -0.030121875 -0.00125 -0.004134375 0.581999
426 1 -0.030121875 -0.00125 -0.002953125 0.108924
427 1 -0.030121875 -0.00125 -0.001771875 0.603213
428 1 -0.030121875 -0.00125 -0.000590625 0.113425
429 1 -0.030121875 -0.00125 0.000590625 0.609977
430 1 -0.030121875 -0.00125 0.001771875 0.114836
431 1 -0.030121875 -0.00125 0.002953125 0.599965
432 1 -0.030121875 -0.00125 0.004134375 0.109638
433 1 -0.030121875 -0.00125 0.005315625 0.569621
434 1 -0.030121875 -0.00125 0.006496875 0.101894
435 1 -0.030121875 -0.00125 0.007678125 0.522106
436 1 -0.030121875 -0.00125 0.008859375 0.0927791
437 1 -0.030121875 -0.00125 0.010040625 0.466287
438 1 -0.030121875 -0.00125 0.011221875 0.0855498
439 1 -0.030121875 -0.00125 0.012403125 0.412132
440 1 -0.030121875 -0.00125 0.013584375 0.0795572
441 1 -0.030121875 -0.00125 0.014765625 0.365998
442 1 -0.030121875 -0.00125 0.015946875 0.0752137
443 1 -0.030121875 -0.00125 0.017128125 0.327241
444 1 -0.030121875 -0.00125 0.018309375 0.074614
445 1 -0.030121875 -0.00125 0.019490625 0.293635
446 1 -0.030121875 -0.00125 0.020671875 0.0758843
447 1 -0.030121875 0.000116666666667 -0.020671875 0.278226
448 1 -0.030121875 0.000116666666667 -0.019490625 0.0701589
449 1 -0.030121875 0.000116666666667 -0.018309375 0.304957
450 1 -0.030121875 0.000116666666667 -0.017128125 0.0697822
451 1 -0.030121875 0.000116666666667 -0.015946875 0.343832
452 1 -0.030121875 0.000116666666667 -0.014765625 0.0719762
453 1 -0.030121875 0.000116666666667 -0.013584375 0.391591
454 1 -0.030121875 0.000116666666667 -0.012403125 0.0777903
455 1 -0.030121875 0.000116666666667 -0.011221875 0.447879
456 1 -0.030121875 0.000116666666667 -0.010040625 0.0860585
457 1 -0.030121875 0.000116666666667 -0.008859375 0.501882
458 1 -0.030121875 0.000116666666667 -0.007678125 0.0947196
459 1 -0.030121875 0.000116666666667 -0.006496875 0.547189
460 1 -0.030121875 0.000116666666667 -0.005315625 0.102128
461 1 -0.030121875 0.000116666666667 -0.004134375 0.581999
462 1 -0.030121875 0.000116666666667 -0.002953125 0.108924
463 1 -0.030121875 0.000116666666667 -0.001771875 0.603213
464 1 -0.030121875 0.000116666666667 -0.000590625 0.113425
465 1 -0.030121875 0.000116666666667 0.000590625 0.609977
466 1 -0.030121875 0.000116666666667 0.001771875 0.114836
467 1 -0.030121875 0.000116666666667 0.002953125 0.599965
468 1 -0.030121875 0.000116666666667 0.004134375 0.109638
469 1 -0.030121875 0.000116666666667 0.005315625 0.569621
470 1 -0.030121875 0.000116666666667 0.006496875 0.101894
471 1 -0.030121875 0.000116666666667 0.007678125 0.522106
472 1 -0.030121875 0.000116666666667 0.008859375 0.0927791
473 1 -0.030121875 0.000116666666667 0.010040625 0.466287
474 1 -0.030121875 0.000116666666667 0.011221875 0.0855498
475 1 -0.030121875 0.000116666666667 0.012403125 0.412132
476 1 -0.030121875 0.000116666666667 0.013584375 0.0795572
477 1 -0.030121875 0.000116666666667 0.014765625 0.365998
478 1 -0.030121875 0.000116666666667 0.015946875 0.0752137
479 1 -0.030121875 0.000116666666667 0.017128125 0.327241
480 1 -0.030121875 0.000116666666667 0.018309375 0.074614
481 1 -0.030121875 0.000116666666667 0.019490625 0.293635
482 1 -0.030121875 0.000116666666667 0.020671875 0.0758843
483 1 -0.028940625 -0.00261666666667 -0.021853125 0.192237
484 1 -0.028940625 -0.00261666666667 -0.020671875 0.0995598
485 1 -0.028940625 -0.00261666666667 -0.019490625 0.198637
486 1 -0.028940625 -0.00261666666667 -0.018309375 0.101161
487 1 -0.028940625 -0.00261666666667 -0.017128125 0.208302
488 1 -0.028940625 -0.00261666666667 -0.015946875 0.104812
489 1 -0.028940625 -0.00261666666667 -0.014765625 0.222884
490 1 -0.028940625 -0.00261666666667 -0.013584375 0.110491
491 1 -0.028940625 -0.00261666666667 -0.012403125 0.239936
492 1 -0.028940625 -0.00261666666667 -0.011221875 0.118473
493 1 -0.028940625 -0.00261666666667 -0.010040625 0.25971
494 1 -0.028940625 -0.00261666666667 -0.008859375 0.127415
495 1 -0.028940625 -0.00261666666667 -0.007678125 0.276153
496 1 -0.028940625 -0.00261666666667 -0.006496875 0.136021
497 1 -0.028940625 -0.00261666666667 -0.005315625 0.289992
498 1 -0.028940625 -0.00261666666667 -0.004134375 0.144008
499 1 -0.028940625 -0.00261666666667 -0.002953125 0.297727
500 1 -0.028940625 -0.00261666666667 -0.001771875 0.151613
501 1 -0.028940625 -0.00261666666667 -0.000590625 0.30199
502 1 -0.028940625 -0.00261666666667 0.000590625 0.157366
503 1 -0.028940625 -0.00261666666667 0.001771875 0.298876
504 1 -0.028940625 -0.00261666666667 0.002953125 0.159382
505 1 -0.028940625 -0.00261666666667 0.004134375 0.287277
506 1 -0.028940625 -0.00261666666667 0.005315625 0.1553
507 1 -0.028940625 -0.00261666666667 0.006496875 0.268585
508 1 -0.028940625 -0.00261666666667 0.007678125 0.147526
509 1 -0.028940625 -0.00261666666667 0.008859375 0.247915
510 1 -0.028940625 -0.00261666666667 0.010040625 0.137906
511 1 -0.028940625 -0.00261666666667 0.011221875 0.227438
512 1 -0.028940625 -0.00261666666667 0.012403125 0.129114
513 1 -0.028940625 -0.00261666666667 0.013584375 0.210701
514 1 -0.028940625 -0.00261666666667 0.014765625 0.12237
515 1 -0.028940625 -0.00261666666667 0.015946875 0.199334
516 1 -0.028940625 -0.00261666666667 0.017128125 0.1183
517 1 -0.028940625 -0.00261666666667 0.018309375 0.195279
518 1 -0.028940625 -0.00261666666667 0.019490625 0.117874
519 1 -0.028940625 -0.00261666666667 0.020671875 0.195322
520 1 -0.028940625 -0.00261666666667 0.021853125 0.120235
521 1 -0.028940625 -0.00125 -0.021853125 0.192237
522 1 -0.028940625 -0.00125 -0.020671875 0.0995598
523 1 -0.028940625 -0.00125 -0.019490625 0.198637
524 1 -0.028940625 -0.00125 -0.018309375 0.101161
525 1 -0.028940625 -0.00125 -0.017128125 0.208302
526 1 -0.028940625 -0.00125 -0.015946875 0.104812
527 1 -0.028940625 -0.00125 -0.014765625 0.222884
528 1 -0.028940625 -0.00125 -0.013584375 0.110491
529 1 -0.028940625 -0.00125 -0.012403125 0.239936
530 1 -0.028940625 -0.00125 -0.011221875 0.118473
531 1 -0.028940625 -0.00125 -0.010040625 0.25971
532 1 -0.028940625 -0.00125 -0.008859375 0.127415
533 1 -0.028940625 -0.00125 -0.007678125 0.276153
534 1 -0.028940625 -0.00125 -0.006496875 0.136021
535 1 -0.028940625 -0.00125 -0.005315625 0.289992
536 1 -0.028940625 -0.00125 -0.004134375 0.144008