ITEM: TIMESTEP
0
ITEM: NUMBER OF ATOMS
9240
ITEM: BOX BOUNDS ss ss ss
-3.7007399999999996e-02 3.7007399999999996e-02
-2.0002499999999999e-03 2.5000000000000004e-07
-3.7007399999999996e-02 3.7007399999999996e-02
ITEM: ATOMS id type x y z c_1
0 1 -0.037209375 -0.00261666666667 -0.000590625 0.504665
1 1 -0.037209375 -0.00125 -0.000590625 0.504665
2 1 -0.037209375 0.000116666666667 -0.000590625 0.504665
3 1 -0.036028125 -0.00261666666667 -0.007678125 0.510396
4 1 -0.036028125 -0.00261666666667 -0.006496875 0.511103
5 1 -0.036028125 -0.00261666666667 -0.005315625 0.510298
6 1 -0.036028125 -0.00261666666667 -0.004134375 0.51086
7 1 -0.036028125 -0.00261666666667 -0.002953125 0.509956
8 1 -0.036028125 -0.00261666666667 -0.001771875 0.510679
9 1 -0.036028125 -0.00261666666667 -0.000590625 0.509475
10 1 -0.036028125 -0.00261666666667 0.000590625 0.510902
11 1 -0.036028125 -0.00261666666667 0.001771875 0.508813
12 1 -0.036028125 -0.00261666666667 0.002953125 0.511057
13 1 -0.036028125 -0.00261666666667 0.004134375 0.508367
14 1 -0.036028125 -0.00261666666667 0.005315625 0.511574
15 1 -0.036028125 -0.00261666666667 0.006496875 0.508355
16 1 -0.036028125 -0.00261666666667 0.007678125 0.511997
17 1 -0.036028125 -0.00125 -0.007678125 0.510396
18 1 -0.036028125 -0.00125 -0.006496875 0.511103
19 1 -0.036028125 -0.00125 -0.005315625 0.510298
20 1 -0.036028125 -0.00125 -0.004134375 0.51086
21 1 -0.036028125 -0.00125 -0.002953125 0.509956
22 1 -0.036028125 -0.00125 -0.001771875 0.510679
23 1 -0.036028125 -0.00125 -0.000590625 0.509475
24 1 -0.036028125 -0.00125 0.000590625 0.510902
25 1 -0.036028125 -0.00125 0.001771875 0.508813
26 1 -0.036028125 -0.00125 0.002953125 0.511057
27 1 -0.036028125 -0.00125 0.004134375 0.508367
28 1 -0.036028125 -0.00125 0.005315625 0.511574
29 1 -0.036028125 -0.00125 0.006496875 0.508355
30 1 -0.036028125 -0.00125 0.007678125 0.511997
31 1 -0.036028125 0.000116666666667 -0.007678125 0.510396
32 1 -0.036028125 0.000116666666667 -0.006496875 0.511103
33 1 -0.036028125 0.000116666666667 -0.005315625 0.510298
34 1 -0.036028125 0.000116666666667 -0.004134375 0.51086
35 1 -0.036028125 0.000116666666667 -0.002953125 0.509956
36 1 -0.036028125 0.000116666666667 -0.001771875 0.510679
37 1 -0.036028125 0.000116666666667 -0.000590625 0.509475
38 1 -0.036028125 0.000116666666667 0.000590625 0.510902
39 1 -0.036028125 0.000116666666667 0.001771875 0.508813
40 1 -0.036028125 0.000116666666667 0.002953125 0.511057
41 1 -0.036028125 0.000116666666667 0.004134375 0.508367
42 1 -0.036028125 0.000116666666667 0.005315625 0.511574
43 1 -0.036028125 0.000116666666667 0.006496875 0.508355
44 1 -0.036028125 0.000116666666667 0.007678125 0.511997
45 1 -0.034846875 -0.00261666666667 -0.011221875 0.498956
46 1 -0.034846875 -0.00261666666667 -0.010040625 0.519959
47 1 -0.034846875 -0.00261666666667 -0.008859375 0.499196
48 1 -0.034846875 -0.00261666666667 -0.007678125 0.518751
49 1 -0.034846875 -0.00261666666667 -0.006496875 0.499216
50 1 -0.034846875 -0.00261666666667 -0.005315625 0.517522
51 1 -0.034846875 -0.00261666666667 -0.004134375 0.499718
52 1 -0.034846875 -0.00261666666667 -0.002953125 0.516666
53 1 -0.034846875 -0.00261666666667 -0.001771875 0.499805
54 1 -0.034846875 -0.00261666666667 -0.000590625 0.515881
55 1 -0.034846875 -0.00261666666667 0.000590625 0.499734
56 1 -0.034846875 -0.00261666666667 0.001771875 0.515268
57 1 -0.034846875 -0.00261666666667 0.002953125 0.499416
58 1 -0.034846875 -0.00261666666667 0.004134375 0.515822
59 1 -0.034846875 -0.00261666666667 0.005315625 0.499219
60 1 -0.034846875 -0.00261666666667 0.006496875 0.516288
61 1 -0.034846875 -0.00261666666667 0.007678125 0.49963
62 1 -0.034846875 -0.00261666666667 0.008859375 0.516894
63 1 -0.034846875 -0.00261666666667 0.010040625 0.500155
64 1 -0.034846875 -0.00261666666667 0.011221875 0.517391
65 1 -0.034846875 -0.00125 -0.011221875 0.498956
66 1 -0.034846875 -0.00125 -0.010040625 0.519959
67 1 -0.034846875 -0.00125 -0.008859375 0.499196
68 1 -0.034846875 -0.00125 -0.007678125 0.518751
69 1 -0.034846875 -0.00125 -0.006496875 0.499216
70 1 -0.034846875 -0.00125 -0.005315625 0.517522
71 1 -0.034846875 -0.00125 -0.004134375 0.499718
72 1 -0.034846875 -0.00125 -0.002953125 0.516666
73 1 -0.034846875 -0.00125 -0.001771875 0.499805
74 1 -0.034846875 -0.00125 -0.000590625 0.515881
75 1 -0.034846875 -0.00125 0.000590625 0.499734
76 1 -0.034846875 -0.00125 0.001771875 0.515268
77 1 -0.034846875 -0.00125 0.002953125 0.499416
78 1 -0.034846875 -0.00125 0.004134375 0.515822
79 1 -0.034846875 -0.00125 0.005315625 0.499219
80 1 -0.034846875 -0.00125 0.006496875 0.516288
81 1 -0.034846875 -0.00125 0.007678125 0.49963
82 1 -0.034846875 -0.00125 0.008859375 0.516894
83 1 -0.034846875 -0.00125 0.010040625 0.500155
84 1 -0.034846875 -0.00125 0.011221875 0.517391
85 1 -0.034846875 0.000116666666667 -0.011221875 0.498956
86 1 -0.034846875 0.000116666666667 -0.010040625 0.519959
87 1 -0.034846875 0.000116666666667 -0.008859375 0.499196
88 1 -0.034846875 0.000116666666667 -0.007678125 0.518751
89 1 -0.034846875 0.000116666666667 -0.006496875 0.499216
90 1 -0.034846875 0.000116666666667 -0.005315625 0.517522
91 1 -0.034846875 0.000116666666667 -0.004134375 0.499718
92 1 -0.034846875 0.000116666666667 -0.002953125 0.516666
93 1 -0.034846875 0.000116666666667 -0.001771875 0.499805
94 1 -0.034846875 0.000116666666667 -0.000590625 0.515881
95 1 -0.034846875 0.000116666666667 0.000590625 0.499734
96 1 -0.034846875 0.000116666666667 0.001771875 0.515268
97 1 -0.034846875 0.000116666666667 0.002953125 0.499416
98 1 -0.034846875 0.000116666666667 0.004134375 0.515822
99 1 -0.034846875 0.000116666666667 0.005315625 0.499219
100 1 -0.034846875 0.000116666666667 0.006496875 0.516288
101 1 -0.034846875 0.000116666666667 0.007678125 0.49963
102 1 -0.034846875 0.000116666666667 0.008859375 0.516894
103 1 -0.034846875 0.000116666666667 0.010040625 0.500155
104 1 -0.034846875 0.000116666666667 0.011221875 0.517391
105 1 -0.033665625 -0.00261666666667 -0.013584375 0.518298
106 1 -0.033665625 -0.00261666666667 -0.012403125 0.508427
107 1 -0.033665625 -0.00261666666667 -0.011221875 0.517623
108 1 -0.033665625 -0.00261666666667 -0.010040625 0.508822
109 1 -0.033665625 -0.00261666666667 -0.008859375 0.516944
110 1 -0.033665625 -0.00261666666667 -0.007678125 0.509132
111 1 -0.033665625 -0.00261666666667 -0.006496875 0.516315
112 1 -0.033665625 -0.00261666666667 -0.005315625 0.509167
113 1 -0.033665625 -0.00261666666667 -0.004134375 0.515855
114 1 -0.033665625 -0.00261666666667 -0.002953125 0.508938
115 1 -0.033665625 -0.00261666666667 -0.001771875 0.515455
116 1 -0.033665625 -0.00261666666667 -0.000590625 0.508476
117 1 -0.033665625 -0.00261666666667 0.000590625 0.515631
118 1 -0.033665625 -0.00261666666667 0.001771875 0.507732
119 1 -0.033665625 -0.00261666666667 0.002953125 0.515784
120 1 -0.033665625 -0.00261666666667 0.004134375 0.50711
121 1 -0.033665625 -0.00261666666667 0.005315625 0.516048
122 1 -0.033665625 -0.00261666666667 0.006496875 0.506888
123 1 -0.033665625 -0.00261666666667 0.007678125 0.516357
124 1 -0.033665625 -0.00261666666667 0.008859375 0.506745
125 1 -0.033665625 -0.00261666666667 0.010040625 0.516753
126 1 -0.033665625 -0.00261666666667 0.011221875 0.506702
127 1 -0.033665625 -0.00261666666667 0.012403125 0.517047
128 1 -0.033665625 -0.00261666666667 0.013584375 0.506702
129 1 -0.033665625 -0.00125 -0.013584375 0.518298
130 1 -0.033665625 -0.00125 -0.012403125 0.508427
131 1 -0.033665625 -0.00125 -0.011221875 0.517623
132 1 -0.033665625 -0.00125 -0.010040625 0.508822
133 1 -0.033665625 -0.00125 -0.008859375 0.516944
134 1 -0.033665625 -0.00125 -0.007678125 0.509132
135 1 -0.033665625 -0.00125 -0.006496875 0.516315
136 1 -0.033665625 -0.00125 -0.005315625 0.509167
137 1 -0.033665625 -0.00125 -0.004134375 0.515855
138 1 -0.033665625 -0.00125 -0.002953125 0.508938
139 1 -0.033665625 -0.00125 -0.001771875 0.515455
140 1 -0.033665625 -0.00125 -0.000590625 0.508476
141 1 -0.033665625 -0.00125 0.000590625 0.515631
142 1 -0.033665625 -0.00125 0.001771875 0.507732
143 1 -0.033665625 -0.00125 0.002953125 0.515784
144 1 -0.033665625 -0.00125 0.004134375 0.50711
145 1 -0.033665625 -0.00125 0.005315625 0.516048
146 1 -0.033665625 -0.00125 0.006496875 0.506888
147 1 -0.033665625 -0.00125 0.007678125 0.516357
148 1 -0.033665625 -0.00125 0.008859375 0.506745
149 1 -0.033665625 -0.00125 0.010040625 0.516753
150 1 -0.033665625 -0.00125 0.011221875 0.506702
151 1 -0.033665625 -0.00125 0.012403125 0.517047
152 1 -0.033665625 -0.00125 0.013584375 0.506702
153 1 -0.033665625 0.000116666666667 -0.013584375 0.518298
154 1 -0.033665625 0.000116666666667 -0.012403125 0.508427
155 1 -0.033665625 0.000116666666667 -0.011221875 0.517623
156 1 -0.033665625 0.000116666666667 -0.010040625 0.508822
157 1 -0.033665625 0.000116666666667 -0.008859375 0.516944
158 1 -0.033665625 0.000116666666667 -0.007678125 0.509132
159 1 -0.033665625 0.000116666666667 -0.006496875 0.516315
160 1 -0.033665625 0.000116666666667 -0.005315625 0.509167
161 1 -0.033665625 0.000116666666667 -0.004134375 0.515855
162 1 -0.033665625 0.000116666666667 -0.002953125 0.508938
163 1 -0.033665625 0.000116666666667 -0.001771875 0.515455
164 1 -0.033665625 0.000116666666667 -0.000590625 0.508476
165 1 -0.033665625 0.000116666666667 0.000590625 0.515631
166 1 -0.033665625 0.000116666666667 0.001771875 0.507732
167 1 -0.033665625 0.000116666666667 0.002953125 0.515784
168 1 -0.033665625 0.000116666666667 0.004134375 0.50711
169 1 -0.033665625 0.000116666666667 0.005315625 0.516048
170 1 -0.033665625 0.000116666666667 0.006496875 0.506888
171 1 -0.033665625 0.000116666666667 0.007678125 0.516357
172 1 -0.033665625 0.000116666666667 0.008859375 0.506745
173 1 -0.033665625 0.000116666666667 0.010040625 0.516753
174 1 -0.033665625 0.000116666666667 0.011221875 0.506702
175 1 -0.033665625 0.000116666666667 0.012403125 0.517047
176 1 -0.033665625 0.000116666666667 0.013584375 0.506702
177 1 -0.032484375 -0.00261666666667 -0.018309375 0.500784
178 1 -0.032484375 -0.00261666666667 -0.017128125 0.522534
179 1 -0.032484375 -0.00261666666667 -0.015946875 0.500471
180 1 -0.032484375 -0.00261666666667 -0.014765625 0.52213
181 1 -0.032484375 -0.00261666666667 -0.013584375 0.500287
182 1 -0.032484375 -0.00261666666667 -0.012403125 0.52158
183 1 -0.032484375 -0.00261666666667 -0.011221875 0.500358
184 1 -0.032484375 -0.00261666666667 -0.010040625 0.520497
185 1 -0.032484375 -0.00261666666667 -0.008859375 0.500475
186 1 -0.032484375 -0.00261666666667 -0.007678125 0.519413
187 1 -0.032484375 -0.00261666666667 -0.006496875 0.500315
188 1 -0.032484375 -0.00261666666667 -0.005315625 0.5183
189 1 -0.032484375 -0.00261666666667 -0.004134375 0.500706
190 1 -0.032484375 -0.00261666666667 -0.002953125 0.517553
191 1 -0.032484375 -0.00261666666667 -0.001771875 0.500783
192 1 -0.032484375 -0.00261666666667 -0.000590625 0.516836
193 1 -0.032484375 -0.00261666666667 0.000590625 0.500491
194 1 -0.032484375 -0.00261666666667 0.001771875 0.516529
195 1 -0.032484375 -0.00261666666667 0.002953125 0.500078
196 1 -0.032484375 -0.00261666666667 0.004134375 0.517087
197 1 -0.032484375 -0.00261666666667 0.005315625 0.500039
198 1 -0.032484375 -0.00261666666667 0.006496875 0.51757
199 1 -0.032484375 -0.00261666666667 0.007678125 0.500406
200 1 -0.032484375 -0.00261666666667 0.008859375 0.51815
201 1 -0.032484375 -0.00261666666667 0.010040625 0.500976
202 1 -0.032484375 -0.00261666666667 0.011221875 0.518676
203 1 -0.032484375 -0.00261666666667 0.012403125 0.501398
204 1 -0.032484375 -0.00261666666667 0.013584375 0.51903
205 1 -0.032484375 -0.00261666666667 0.014765625 0.501979
206 1 -0.032484375 -0.00261666666667 0.015946875 0.519264
207 1 -0.032484375 -0.00261666666667 0.017128125 0.502397
208 1 -0.032484375 -0.00261666666667 0.018309375 0.519322
209 1 -0.032484375 -0.00125 -0.018309375 0.500784
210 1 -0.032484375 -0.00125 -0.017128125 0.522534
211 1 -0.032484375 -0.00125 -0.015946875 0.500471
212 1 -0.032484375 -0.00125 -0.014765625 0.52213
213 1 -0.032484375 -0.00125 -0.013584375 0.500287
214 1 -0.032484375 -0.00125 -0.012403125 0.52158
215 1 -0.032484375 -0.00125 -0.011221875 0.500358
216 1 -0.032484375 -0.00125 -0.010040625 0.520497
217 1 -0.032484375 -0.00125 -0.008859375 0.500475
218 1 -0.032484375 -0.00125 -0.007678125 0.519413
219 1 -0.032484375 -0.00125 -0.006496875 0.500315
220 1 -0.032484375 -0.00125 -0.005315625 0.5183
221 1 -0.032484375 -0.00125 -0.004134375 0.500706
222 1 -0.032484375 -0.00125 -0.002953125 0.517553
223 1 -0.032484375 -0.00125 -0.001771875 0.500783
224 1 -0.032484375 -0.00125 -0.000590625 0.516836
225 1 -0.032484375 -0.00125 0.000590625 0.500491
226 1 -0.032484375 -0.00125 0.001771875 0.516529
227 1 -0.032484375 -0.00125 0.002953125 0.500078
228 1 -0.032484375 -0.00125 0.004134375 0.517087
229 1 -0.032484375 -0.00125 0.005315625 0.500039
230 1 -0.032484375 -0.00125 0.006496875 0.51757
231 1 -0.032484375 -0.00125 0.007678125 0.500406
232 1 -0.032484375 -0.00125 0.008859375 0.51815
233 1 -0.032484375 -0.00125 0.010040625 0.500976
234 1 -0.032484375 -0.00125 0.011221875 0.518676
235 1 -0.032484375 -0.00125 0.012403125 0.501398
236 1 -0.032484375 -0.00125 0.013584375 0.51903
237 1 -0.032484375 -0.00125 0.014765625 0.501979
238 1 -0.032484375 -0.00125 0.015946875 0.519264
239 1 -0.032484375 -0.00125 0.017128125 0.502397
240 1 -0.032484375 -0.00125 0.018309375 0.519322
241 1 -0.032484375 0.000116666666667 -0.018309375 0.500784
242 1 -0.032484375 0.000116666666667 -0.017128125 0.522534
243 1 -0.032484375 0.000116666666667 -0.015946875 0.500471
244 1 -0.032484375 0.000116666666667 -0.014765625 0.52213
245 1 -0.032484375 0.000116666666667 -0.013584375 0.500287
246 1 -0.032484375 0.000116666666667 -0.012403125 0.52158
247 1 -0.032484375 0.000116666666667 -0.011221875 0.500358
248 1 -0.032484375 0.000116666666667 -0.010040625 0.520497
249 1 -0.032484375 0.000116666666667 -0.008859375 0.500475
250 1 -0.032484375 0.000116666666667 -0.007678125 0.519413
251 1 -0.032484375 0.000116666666667 -0.006496875 0.500315
252 1 -0.032484375 0.000116666666667 -0.005315625 0.5183
253 1 -0.032484375 0.000116666666667 -0.004134375 0.500706
254 1 -0.032484375 0.000116666666667 -0.002953125 0.517553
255 1 -0.032484375 0.000116666666667 -0.001771875 0.500783
256 1 -0.032484375 0.000116666666667 -0.000590625 0.516836
257 1 -0.032484375 0.000116666666667 0.000590625 0.500491
258 1 -0.032484375 0.000116666666667 0.001771875 0.516529
259 1 -0.032484375 0.000116666666667 0.002953125 0.500078
260 1 -0.032484375 0.000116666666667 0.004134375 0.517087
261 1 -0.032484375 0.000116666666667 0.005315625 0.500039
262 1 -0.032484375 0.000116666666667 0.006496875 0.51757
263 1 -0.032484375 0.000116666666667 0.007678125 0.500406
264 1 -0.032484375 0.000116666666667 0.008859375 0.51815
265 1 -0.032484375 0.000116666666667 0.010040625 0.500976
266 1 -0.032484375 0.000116666666667 0.011221875 0.518676
267 1 -0.032484375 0.000116666666667 0.012403125 0.501398
268 1 -0.032484375 0.000116666666667 0.013584375 0.51903
269 1 -0.032484375 0.000116666666667 0.014765625 0.501979
270 1 -0.032484375 0.000116666666667 0.015946875 0.519264
271 1 -0.032484375 0.000116666666667 0.017128125 0.502397
272 1 -0.032484375 0.000116666666667 0.018309375 0.519322
273 1 -0.031303125 -0.00261666666667 -0.019490625 0.50879
274 1 -0.031303125 -0.00261666666667 -0.018309375 0.521598
275 1 -0.031303125 -0.00261666666667 -0.017128125 0.50885
276 1 -0.031303125 -0.00261666666667 -0.015946875 0.521039
277 1 -0.031303125 -0.00261666666667 -0.014765625 0.508818
278 1 -0.031303125 -0.00261666666667 -0.013584375 0.52041
279 1 -0.031303125 -0.00261666666667 -0.012403125 0.509043
280 1 -0.031303125 -0.00261666666667 -0.011221875 0.519658
281 1 -0.031303125 -0.00261666666667 -0.010040625 0.509336
282 1 -0.031303125 -0.00261666666667 -0.008859375 0.518912
283 1 -0.031303125 -0.00261666666667 -0.007678125 0.509685
284 1 -0.031303125 -0.00261666666667 -0.006496875 0.518174
285 1 -0.031303125 -0.00261666666667 -0.005315625 0.509755
286 1 -0.031303125 -0.00261666666667 -0.004134375 0.5176
287 1 -0.031303125 -0.00261666666667 -0.002953125 0.509502
288 1 -0.031303125 -0.00261666666667 -0.001771875 0.517058
289 1 -0.031303125 -0.00261666666667 -0.000590625 0.509164
290 1 -0.031303125 -0.00261666666667 0.000590625 0.517076
291 1 -0.031303125 -0.00261666666667 0.001771875 0.508326
292 1 -0.031303125 -0.00261666666667 0.002953125 0.517176
293 1 -0.031303125 -0.00261666666667 0.004134375 0.507565
294 1 -0.031303125 -0.00261666666667 0.005315625 0.517291
295 1 -0.031303125 -0.00261666666667 0.006496875 0.50725
296 1 -0.031303125 -0.00261666666667 0.007678125 0.51755
297 1 -0.031303125 -0.00261666666667 0.008859375 0.50701
298 1 -0.031303125 -0.00261666666667 0.010040625 0.517969
299 1 -0.031303125 -0.00261666666667 0.011221875 0.506893
300 1 -0.031303125 -0.00261666666667 0.012403125 0.518328
301 1 -0.031303125 -0.00261666666667 0.013584375 0.50685
302 1 -0.031303125 -0.00261666666667 0.014765625 0.518687
303 1 -0.031303125 -0.00261666666667 0.015946875 0.50687
304 1 -0.031303125 -0.00261666666667 0.017128125 0.518971
305 1 -0.031303125 -0.00261666666667 0.018309375 0.506954
306 1 -0.031303125 -0.00261666666667 0.019490625 0.519042
307 1 -0.031303125 -0.00125 -0.019490625 0.50879
308 1 -0.031303125 -0.00125 -0.018309375 0.521598
309 1 -0.031303125 -0.00125 -0.017128125 0.50885
310 1 -0.031303125 -0.00125 -0.015946875 0.521039
311 1 -0.031303125 -0.00125 -0.014765625 0.508818
312 1 -0.031303125 -0.00125 -0.013584375 0.52041
313 1 -0.031303125 -0.00125 -0.012403125 0.509043
314 1 -0.031303125 -0.00125 -0.011221875 0.519658
315 1 -0.031303125 -0.00125 -0.010040625 0.509336
316 1 -0.031303125 -0.00125 -0.008859375 0.518912
317 1 -0.031303125 -0.00125 -0.007678125 0.509685
318 1 -0.031303125 -0.00125 -0.006496875 0.518174
319 1 -0.031303125 -0.00125 -0.005315625 0.509755
320 1 -0.031303125 -0.00125 -0.004134375 0.5176
321 1 -0.031303125 -0.00125 -0.002953125 0.509502
322 1 -0.031303125 -0.00125 -0.001771875 0.517058
323 1 -0.031303125 -0.00125 -0.000590625 0.509164
324 1 -0.031303125 -0.00125 0.000590625 0.517076
325 1 -0.031303125 -0.00125 0.001771875 0.508326
326 1 -0.031303125 -0.00125 0.002953125 0.517176
327 1 -0.031303125 -0.00125 0.004134375 0.507565
328 1 -0.031303125 -0.00125 0.005315625 0.517291
329 1 -0.031303125 -0.00125 0.006496875 0.50725
330 1 -0.031303125 -0.00125 0.007678125 0.51755
331 1 -0.031303125 -0.00125 0.008859375 0.50701
332 1 -0.031303125 -0.00125 0.010040625 0.517969
333 1 -0.031303125 -0.00125 0.011221875 0.506893
334 1 -0.031303125 -0.00125 0.012403125 0.518328
335 1 -0.031303125 -0.00125 0.013584375 0.50685
336 1 -0.031303125 -0.00125 0.014765625 0.518687
337 1 -0.031303125 -0.00125 0.015946875 0.50687
338 1 -0.031303125 -0.00125 0.017128125 0.518971
339 1 -0.031303125 -0.00125 0.018309375 0.506954
340 1 -0.031303125 -0.00125 0.019490625 0.519042
341 1 -0.031303125 0.000116666666667 -0.019490625 0.50879
342 1 -0.031303125 0.000116666666667 -0.018309375 0.521598
343 1 -0.031303125 0.000116666666667 -0.017128125 0.50885
344 1 -0.031303125 0.000116666666667 -0.015946875 0.521039
345 1 -0.031303125 0.000116666666667 -0.014765625 0.508818
346 1 -0.031303125 0.000116666666667 -0.013584375 0.52041
347 1 -0.031303125 0.000116666666667 -0.012403125 0.509043
348 1 -0.031303125 0.000116666666667 -0.011221875 0.519658
349 1 -0.031303125 0.000116666666667 -0.010040625 0.509336
350 1 -0.031303125 0.000116666666667 -0.008859375 0.518912
351 1 -0.031303125 0.000116666666667 -0.007678125 0.509685
352 1 -0.031303125 0.000116666666667 -0.006496875 0.518174
353 1 -0.031303125 0.000116666666667 -0.005315625 0.509755
354 1 -0.031303125 0.000116666666667 -0.004134375 0.5176
355 1 -0.031303125 0.000116666666667 -0.002953125 0.509502
356 1 -0.031303125 0.000116666666667 -0.001771875 0.517058
357 1 -0.031303125 0.000116666666667 -0.000590625 0.509164
358 1 -0.031303125 0.000116666666667 0.000590625 0.517076
359 1 -0.031303125 0.000116666666667 0.001771875 0.508326
360 1 -0.031303125 0.000116666666667 0.002953125 0.517176
361 1 -0.031303125 0.000116666666667 0.004134375 0.507565
362 1 -0.031303125 0.000116666666667 0.005315625 0.517291
363 1 -0.031303125 0.000116666666667 0.006496875 0.50725
364 1 -0.031303125 0.000116666666667 0.007678125 0.51755
365 1 -0.031303125 0.000116666666667 0.008859375 0.50701
366 1 -0.031303125 0.000116666666667 0.010040625 0.517969
367 1 -0.031303125 0.000116666666667 0.011221875 0.506893
368 1 -0.031303125 0.000116666666667 0.012403125 0.518328
369 1 -0.031303125 0.000116666666667 0.013584375 0.50685
370 1 -0.031303125 0.000116666666667 0.014765625 0.518687
371 1 -0.031303125 0.000116666666667 0.015946875 0.50687
372 1 -0.031303125 0.000116666666667 0.017128125 0.518971
373 1 -0.031303125 0.000116666666667 0.018309375 0.506954
374 1 -0.031303125 0.000116666666667 0.019490625 0.519042
375 1 -0.030121875 -0.00261666666667 -0.020671875 0.500966
376 1 -0.030121875 -0.00261666666667 -0.019490625 0.522965
377 1 -0.030121875 -0.00261666666667 -0.018309375 0.500375
378 1 -0.030121875 -0.00261666666667 -0.017128125 0.52288
379 1 -0.030121875 -0.00261666666667 -0.015946875 0.49997
380 1 -0.030121875 -0.00261666666667 -0.014765625 0.522306
381 1 -0.030121875 -0.00261666666667 -0.013584375 0.500133
382 1 -0.030121875 -0.00261666666667 -0.012403125 0.521526
383 1 -0.030121875 -0.00261666666667 -0.011221875 0.500487
384 1 -0.030121875 -0.00261666666667 -0.010040625 0.520621
385 1 -0.030121875 -0.00261666666667 -0.008859375 0.500739
386 1 -0.030121875 -0.00261666666667 -0.007678125 0.519655
387 1 -0.030121875 -0.00261666666667 -0.006496875 0.500552
388 1 -0.030121875 -0.00261666666667 -0.005315625 0.518614
389 1 -0.030121875 -0.00261666666667 -0.004134375 0.50075
390 1 -0.030121875 -0.00261666666667 -0.002953125 0.517911
391 1 -0.030121875 -0.00261666666667 -0.001771875 0.500713
392 1 -0.030121875 -0.00261666666667 -0.000590625 0.517429
393 1 -0.030121875 -0.00261666666667 0.000590625 0.500439
394 1 -0.030121875 -0.00261666666667 0.001771875 0.517288
395 1 -0.030121875 -0.00261666666667 0.002953125 0.500072
396 1 -0.030121875 -0.00261666666667 0.004134375 0.517941
397 1 -0.030121875 -0.00261666666667 0.005315625 0.500045
398 1 -0.030121875 -0.00261666666667 0.006496875 0.518447
399 1 -0.030121875 -0.00261666666667 0.007678125 0.500523
400 1 -0.030121875 -0.00261666666667 0.008859375 0.51902
401 1 -0.030121875 -0.00261666666667 0.010040625 0.501213
402 1 -0.030121875 -0.00261666666667 0.011221875 0.51943
403 1 -0.030121875 -0.00261666666667 0.012403125 0.501758
404 1 -0.030121875 -0.00261666666667 0.013584375 0.519768
405 1 -0.030121875 -0.00261666666667 0.014765625 0.502336
406 1 -0.030121875 -0.00261666666667 0.015946875 0.519969
407 1 -0.030121875 -0.00261666666667 0.017128125 0.502746
408 1 -0.030121875 -0.00261666666667 0.018309375 0.520054
409 1 -0.030121875 -0.00261666666667 0.019490625 0.50295
410 1 -0.030121875 -0.00261666666667 0.020671875 0.519932
411 1 -0.030121875 -0.00125 -0.020671875 0.500966
412 1 -0.030121875 -0.00125 -0.019490625 0.522965
413 1 -0.030121875 -0.00125 -0.018309375 0.500375
414 1 -0.030121875 -0.00125 -0.017128125 0.52288
415 1 -0.030121875 -0.00125 -0.015946875 0.49997
416 1 -0.030121875 -0.00125 -0.014765625 0.522306
417 1 -0.030121875 -0.00125 -0.013584375 0.500133
418 1 -0.030121875 -0.00125 -0.012403125 0.521526
419 1 -0.030121875 -0.00125 -0.011221875 0.500487
420 1 -0.030121875 -0.00125 -0.010040625 0.520621
421 1 -0.030121875 -0.00125 -0.008859375 0.500739
422 1 -0.030121875 -0.00125 -0.007678125 0.519655
423 1 -0.030121875 -0.00125 -0.006496875 0.500552
424 1 -0.030121875 -0.00125 -0.005315625 0.518614
425 1 -0.030121875 -0.00125 -0.004134375 0.50075
426 1 -0.030121875 -0.00125 -0.002953125 0.517911
427 1 -0.030121875 -0.00125 -0.001771875 0.500713
428 1 -0.030121875 -0.00125 -0.000590625 0.517429
429 1 -0.030121875 -0.00125 0.000590625 0.500439
430 1 -0.030121875 -0.00125 0.001771875 0.517288
431 1 -0.030121875 -0.00125 0.002953125 0.500072
432 1 -0.030121875 -0.00125 0.004134375 0.517941
433 1 -0.030121875 -0.00125 0.005315625 0.500045
434 1 -0.030121875 -0.00125 0.006496875 0.518447
435 1 -0.030121875 -0.00125 0.007678125 0.500523
436 1 -0.030121875 -0.00125 0.008859375 0.51902
437 1 -0.030121875 -0.00125 0.010040625 0.501213
438 1 -0.030121875 -0.00125 0.011221875 0.51943
439 1 -0.030121875 -0.00125 0.012403125 0.501758
440 1 -0.030121875 -0.00125 0.013584375 0.519768
441 1 -0.030121875 -0.00125 0.014765625 0.502336
442 1 -0.030121875 -0.00125 0.015946875 0.519969
443 1 -0.030121875 -0.00125 0.017128125 0.502746
444 1 -0.030121875 -0.00125 0.018309375 0.520054
445 1 -0.030121875 -0.00125 0.019490625 0.50295
446 1 -0.030121875 -0.00125 0.020671875 0.519932
447 1 -0.030121875 0.000116666666667 -0.020671875 0.500966
448 1 -0.030121875 0.000116666666667 -0.019490625 0.522965
449 1 -0.030121875 0.000116666666667 -0.018309375 0.500375
450 1 -0.030121875 0.000116666666667 -0.017128125 0.52288
451 1 -0.030121875 0.000116666666667 -0.015946875 0.49997
452 1 -0.030121875 0.000116666666667 -0.014765625 0.522306
453 1 -0.030121875 0.000116666666667 -0.013584375 0.500133
454 1 -0.030121875 0.000116666666667 -0.012403125 0.521526
455 1 -0.030121875 0.000116666666667 -0.011221875 0.500487
456 1 -0.030121875 0.000116666666667 -0.010040625 0.520621
457 1 -0.030121875 0.000116666666667 -0.008859375 0.500739
458 1 -0.030121875 0.000116666666667 -0.007678125 0.519655
459 1 -0.030121875 0.000116666666667 -0.006496875 0.500552
460 1 -0.030121875 0.000116666666667 -0.005315625 0.518614
461 1 -0.030121875 0.000116666666667 -0.004134375 0.50075
462 1 -0.030121875 0.000116666666667 -0.002953125 0.517911
463 1 -0.030121875 0.000116666666667 -0.001771875 0.500713
464 1 -0.030121875 0.000116666666667 -0.000590625 0.517429
465 1 -0.030121875 0.000116666666667 0.000590625 0.500439
466 1 -0.030121875 0.000116666666667 0.001771875 0.517288
467 1 -0.030121875 0.000116666666667 0.002953125 0.500072
468 1 -0.030121875 0.000116666666667 0.004134375 0.517941
469 1 -0.030121875 0.000116666666667 0.005315625 0.500045
470 1 -0.030121875 0.000116666666667 0.006496875 0.518447
471 1 -0.030121875 0.000116666666667 0.007678125 0.500523
472 1 -0.030121875 0.000116666666667 0.008859375 0.51902
473 1 -0.030121875 0.000116666666667 0.010040625 0.501213
474 1 -0.030121875 0.000116666666667 0.011221875 0.51943
475 1 -0.030121875 0.000116666666667 0.012403125 0.501758
476 1 -0.030121875 0.000116666666667 0.013584375 0.519768
477 1 -0.030121875 0.000116666666667 0.014765625 0.502336
478 1 -0.030121875 0.000116666666667 0.015946875 0.519969
479 1 -0.030121875 0.000116666666667 0.017128125 0.502746
480 1 -0.030121875 0.000116666666667 0.018309375 0.520054
481 1 -0.030121875 0.000116666666667 0.019490625 0.50295
482 1 -0.030121875 0.000116666666667 0.020671875 0.519932
483 1 -0.028940625 -0.00261666666667 -0.021853125 0.509612
484 1 -0.028940625 -0.00261666666667 -0.020671875 0.523448
485 1 -0.028940625 -0.00261666666667 -0.019490625 0.509706
486 1 -0.028940625 -0.00261666666667 -0.018309375 0.522933
487 1 -0.028940625 -0.00261666666667 -0.017128125 0.5097
488 1 -0.028940625 -0.00261666666667 -0.015946875 0.522444
489 1 -0.028940625 -0.00261666666667 -0.014765625 0.509643
490 1 -0.028940625 -0.00261666666667 -0.013584375 0.521764
491 1 -0.028940625 -0.00261666666667 -0.012403125 0.509733
492 1 -0.028940625 -0.00261666666667 -0.011221875 0.520823
493 1 -0.028940625 -0.00261666666667 -0.010040625 0.509808
494 1 -0.028940625 -0.00261666666667 -0.008859375 0.519998
495 1 -0.028940625 -0.00261666666667 -0.007678125 0.510068
496 1 -0.028940625 -0.00261666666667 -0.006496875 0.519178
497 1 -0.028940625 -0.00261666666667 -0.005315625 0.510079
498 1 -0.028940625 -0.00261666666667 -0.004134375 0.518498
499 1 -0.028940625 -0.00261666666667 -0.002953125 0.509824
500 1 -0.028940625 -0.00261666666667 -0.001771875 0.517875
501 1 -0.028940625 -0.00261666666667 -0.000590625 0.509543
502 1 -0.028940625 -0.00261666666667 0.000590625 0.517754
503 1 -0.028940625 -0.00261666666667 0.001771875 0.508636
504 1 -0.028940625 -0.00261666666667 0.002953125 0.517701
505 1 -0.028940625 -0.00261666666667 0.004134375 0.507809
506 1 -0.028940625 -0.00261666666667 0.005315625 0.517708
507 1 -0.028940625 -0.00261666666667 0.006496875 0.507396
508 1 -0.028940625 -0.00261666666667 0.007678125 0.517827
509 1 -0.028940625 -0.00261666666667 0.008859375 0.507095
510 1 -0.028940625 -0.00261666666667 0.010040625 0.518233
511 1 -0.028940625 -0.00261666666667 0.011221875 0.506939
512 1 -0.028940625 -0.00261666666667 0.012403125 0.518609
513 1 -0.028940625 -0.00261666666667 0.013584375 0.506903
514 1 -0.028940625 -0.00261666666667 0.014765625 0.519023
515 1 -0.028940625 -0.00261666666667 0.015946875 0.506995
516 1 -0.028940625 -0.00261666666667 0.017128125 0.519339
517 1 -0.028940625 -0.00261666666667 0.018309375 0.507157
518 1 -0.028940625 -0.00261666666667 0.019490625 0.519449
519 1 -0.028940625 -0.00261666666667 0.020671875 0.507172
520 1 -0.028940625 -0.00261666666667 0.021853125 0.519415
521 1 -0.028940625 -0.00125 -0.021853125 0.509612
522 1 -0.028940625 -0.00125 -0.020671875 0.523448
523 1 -0.028940625 -0.00125 -0.019490625 0.509706
524 1 -0.028940625 -0.00125 -0.018309375 0.522933
525 1 -0.028940625 -0.00125 -0.017128125 0.5097
526 1 -0.028940625 -0.00125 -0.015946875 0.522444
527 1 -0.028940625 -0.00125 -0.014765625 0.509643
528 1 -0.028940625 -0.00125 -0.013584375 0.521764
529 1 -0.028940625 -0.00125 -0.012403125 0.509733
530 1 -0.028940625 -0.00125 -0.011221875 0.520823
531 1 -0.028940625 -0.00125 -0.010040625 0.509808
532 1 -0.028940625 -0.00125 -0.008859375 0.519998
533 1 -0.028940625 -0.00125 -0.007678125 0.510068
534 1 -0.028940625 -0.00125 -0.006496875 0.519178
535 1 -0.028940625 -0.00125 -0.005315625 0.510079
536 1 -0.028940625 -0.00125 -0.004134375 0.518498
537 1 -0.028940625 -0.00125 -0.002953125 0.509824
538 1 -0.028940625 -0.00125 -0.001771875 0.517875