ITEM: TIMESTEP
0
ITEM: NUMBER OF ATOMS
9240
ITEM: BOX BOUNDS ss ss ss
-3.7007399999999996e-02 3.7007399999999996e-02
-2.0002499999999999e-03 2.5000000000000004e-07
-3.7007399999999996e-02 3.7007399999999996e-02
ITEM: ATOMS id type x y z c_1
0 1 -0.037209375 -0.00261666666667 -0.000590625 0.286236
1 1 -0.037209375 -0.00125 -0.000590625 0.286236
2 1 -0.037209375 0.000116666666667 -0.000590625 0.286236
3 1 -0.036028125 -0.00261666666667 -0.007678125 0.227557
4 1 -0.036028125 -0.00261666666667 -0.006496875 0.132259
5 1 -0.036028125 -0.00261666666667 -0.005315625 0.234162
6 1 -0.036028125 -0.00261666666667 -0.004134375 0.139434
7 1 -0.036028125 -0.00261666666667 -0.002953125 0.237855
8 1 -0.036028125 -0.00261666666667 -0.001771875 0.145244
9 1 -0.036028125 -0.00261666666667 -0.000590625 0.241301
10 1 -0.036028125 -0.00261666666667 0.000590625 0.147718
11 1 -0.036028125 -0.00261666666667 0.001771875 0.240292
12 1 -0.036028125 -0.00261666666667 0.002953125 0.145067
13 1 -0.036028125 -0.00261666666667 0.004134375 0.231935
14 1 -0.036028125 -0.00261666666667 0.005315625 0.134482
15 1 -0.036028125 -0.00261666666667 0.006496875 0.214615
16 1 -0.036028125 -0.00261666666667 0.007678125 0.118947
17 1 -0.036028125 -0.00125 -0.007678125 0.227557
18 1 -0.036028125 -0.00125 -0.006496875 0.132259
19 1 -0.036028125 -0.00125 -0.005315625 0.234162
20 1 -0.036028125 -0.00125 -0.004134375 0.139434
21 1 -0.036028125 -0.00125 -0.002953125 0.237855
22 1 -0.036028125 -0.00125 -0.001771875 0.145244
23 1 -0.036028125 -0.00125 -0.000590625 0.241301
24 1 -0.036028125 -0.00125 0.000590625 0.147718
25 1 -0.036028125 -0.00125 0.001771875 0.240292
26 1 -0.036028125 -0.00125 0.002953125 0.145067
27 1 -0.036028125 -0.00125 0.004134375 0.231935
28 1 -0.036028125 -0.00125 0.005315625 0.134482
29 1 -0.036028125 -0.00125 0.006496875 0.214615
30 1 -0.036028125 -0.00125 0.007678125 0.118947
31 1 -0.036028125 0.000116666666667 -0.007678125 0.227557
32 1 -0.036028125 0.000116666666667 -0.006496875 0.132259
33 1 -0.036028125 0.000116666666667 -0.005315625 0.234162
34 1 -0.036028125 0.000116666666667 -0.004134375 0.139434
35 1 -0.036028125 0.000116666666667 -0.002953125 0.237855
36 1 -0.036028125 0.000116666666667 -0.001771875 0.145244
37 1 -0.036028125 0.000116666666667 -0.000590625 0.241301
38 1 -0.036028125 0.000116666666667 0.000590625 0.147718
39 1 -0.036028125 0.000116666666667 0.001771875 0.240292
40 1 -0.036028125 0.000116666666667 0.002953125 0.145067
41 1 -0.036028125 0.000116666666667 0.004134375 0.231935
42 1 -0.036028125 0.000116666666667 0.005315625 0.134482
43 1 -0.036028125 0.000116666666667 0.006496875 0.214615
44 1 -0.036028125 0.000116666666667 0.007678125 0.118947
45 1 -0.034846875 -0.00261666666667 -0.011221875 0.118809
46 1 -0.034846875 -0.00261666666667 -0.010040625 0.174084
47 1 -0.034846875 -0.00261666666667 -0.008859375 0.139429
48 1 -0.034846875 -0.00261666666667 -0.007678125 0.188157
49 1 -0.034846875 -0.00261666666667 -0.006496875 0.152846
50 1 -0.034846875 -0.00261666666667 -0.005315625 0.193866
51 1 -0.034846875 -0.00261666666667 -0.004134375 0.162217
52 1 -0.034846875 -0.00261666666667 -0.002953125 0.197236
53 1 -0.034846875 -0.00261666666667 -0.001771875 0.16943
54 1 -0.034846875 -0.00261666666667 -0.000590625 0.198495
55 1 -0.034846875 -0.00261666666667 0.000590625 0.172811
56 1 -0.034846875 -0.00261666666667 0.001771875 0.196455
57 1 -0.034846875 -0.00261666666667 0.002953125 0.168364
58 1 -0.034846875 -0.00261666666667 0.004134375 0.184243
59 1 -0.034846875 -0.00261666666667 0.005315625 0.1543
60 1 -0.034846875 -0.00261666666667 0.006496875 0.164363
61 1 -0.034846875 -0.00261666666667 0.007678125 0.131969
62 1 -0.034846875 -0.00261666666667 0.008859375 0.139737
63 1 -0.034846875 -0.00261666666667 0.010040625 0.106969
64 1 -0.034846875 -0.00261666666667 0.011221875 0.115307
65 1 -0.034846875 -0.00125 -0.011221875 0.118809
66 1 -0.034846875 -0.00125 -0.010040625 0.174084
67 1 -0.034846875 -0.00125 -0.008859375 0.139429
68 1 -0.034846875 -0.00125 -0.007678125 0.188157
69 1 -0.034846875 -0.00125 -0.006496875 0.152846
70 1 -0.034846875 -0.00125 -0.005315625 0.193866
71 1 -0.034846875 -0.00125 -0.004134375 0.162217
72 1 -0.034846875 -0.00125 -0.002953125 0.197236
73 1 -0.034846875 -0.00125 -0.001771875 0.16943
74 1 -0.034846875 -0.00125 -0.000590625 0.198495
75 1 -0.034846875 -0.00125 0.000590625 0.172811
76 1 -0.034846875 -0.00125 0.001771875 0.196455
77 1 -0.034846875 -0.00125 0.002953125 0.168364
78 1 -0.034846875 -0.00125 0.004134375 0.184243
79 1 -0.034846875 -0.00125 0.005315625 0.1543
80 1 -0.034846875 -0.00125 0.006496875 0.164363
81 1 -0.034846875 -0.00125 0.007678125 0.131969
82 1 -0.034846875 -0.00125 0.008859375 0.139737
83 1 -0.034846875 -0.00125 0.010040625 0.106969
84 1 -0.034846875 -0.00125 0.011221875 0.115307
85 1 -0.034846875 0.000116666666667 -0.011221875 0.118809
86 1 -0.034846875 0.000116666666667 -0.010040625 0.174084
87 1 -0.034846875 0.000116666666667 -0.008859375 0.139429
88 1 -0.034846875 0.000116666666667 -0.007678125 0.188157
89 1 -0.034846875 0.000116666666667 -0.006496875 0.152846
90 1 -0.034846875 0.000116666666667 -0.005315625 0.193866
91 1 -0.034846875 0.000116666666667 -0.004134375 0.162217
92 1 -0.034846875 0.000116666666667 -0.002953125 0.197236
93 1 -0.034846875 0.000116666666667 -0.001771875 0.16943
94 1 -0.034846875 0.000116666666667 -0.000590625 0.198495
95 1 -0.034846875 0.000116666666667 0.000590625 0.172811
96 1 -0.034846875 0.000116666666667 0.001771875 0.196455
97 1 -0.034846875 0.000116666666667 0.002953125 0.168364
98 1 -0.034846875 0.000116666666667 0.004134375 0.184243
99 1 -0.034846875 0.000116666666667 0.005315625 0.1543
100 1 -0.034846875 0.000116666666667 0.006496875 0.164363
101 1 -0.034846875 0.000116666666667 0.007678125 0.131969
102 1 -0.034846875 0.000116666666667 0.008859375 0.139737
103 1 -0.034846875 0.000116666666667 0.010040625 0.106969
104 1 -0.034846875 0.000116666666667 0.011221875 0.115307
105 1 -0.033665625 -0.00261666666667 -0.013584375 0.168969
106 1 -0.033665625 -0.00261666666667 -0.012403125 0.288675
107 1 -0.033665625 -0.00261666666667 -0.011221875 0.223122
108 1 -0.033665625 -0.00261666666667 -0.010040625 0.329143
109 1 -0.033665625 -0.00261666666667 -0.008859375 0.264964
110 1 -0.033665625 -0.00261666666667 -0.007678125 0.351159
111 1 -0.033665625 -0.00261666666667 -0.006496875 0.292008
112 1 -0.033665625 -0.00261666666667 -0.005315625 0.362871
113 1 -0.033665625 -0.00261666666667 -0.004134375 0.306573
114 1 -0.033665625 -0.00261666666667 -0.002953125 0.368314
115 1 -0.033665625 -0.00261666666667 -0.001771875 0.317418
116 1 -0.033665625 -0.00261666666667 -0.000590625 0.3737
117 1 -0.033665625 -0.00261666666667 0.000590625 0.321101
118 1 -0.033665625 -0.00261666666667 0.001771875 0.371302
119 1 -0.033665625 -0.00261666666667 0.002953125 0.313485
120 1 -0.033665625 -0.00261666666667 0.004134375 0.356293
121 1 -0.033665625 -0.00261666666667 0.005315625 0.286643
122 1 -0.033665625 -0.00261666666667 0.006496875 0.325388
123 1 -0.033665625 -0.00261666666667 0.007678125 0.243802
124 1 -0.033665625 -0.00261666666667 0.008859375 0.281652
125 1 -0.033665625 -0.00261666666667 0.010040625 0.191507
126 1 -0.033665625 -0.00261666666667 0.011221875 0.229951
127 1 -0.033665625 -0.00261666666667 0.012403125 0.139378
128 1 -0.033665625 -0.00261666666667 0.013584375 0.180317
129 1 -0.033665625 -0.00125 -0.013584375 0.168969
130 1 -0.033665625 -0.00125 -0.012403125 0.288675
131 1 -0.033665625 -0.00125 -0.011221875 0.223122
132 1 -0.033665625 -0.00125 -0.010040625 0.329143
133 1 -0.033665625 -0.00125 -0.008859375 0.264964
134 1 -0.033665625 -0.00125 -0.007678125 0.351159
135 1 -0.033665625 -0.00125 -0.006496875 0.292008
136 1 -0.033665625 -0.00125 -0.005315625 0.362871
137 1 -0.033665625 -0.00125 -0.004134375 0.306573
138 1 -0.033665625 -0.00125 -0.002953125 0.368314
139 1 -0.033665625 -0.00125 -0.001771875 0.317418
140 1 -0.033665625 -0.00125 -0.000590625 0.3737
141 1 -0.033665625 -0.00125 0.000590625 0.321101
142 1 -0.033665625 -0.00125 0.001771875 0.371302
143 1 -0.033665625 -0.00125 0.002953125 0.313485
144 1 -0.033665625 -0.00125 0.004134375 0.356293
145 1 -0.033665625 -0.00125 0.005315625 0.286643
146 1 -0.033665625 -0.00125 0.006496875 0.325388
147 1 -0.033665625 -0.00125 0.007678125 0.243802
148 1 -0.033665625 -0.00125 0.008859375 0.281652
149 1 -0.033665625 -0.00125 0.010040625 0.191507
150 1 -0.033665625 -0.00125 0.011221875 0.229951
151 1 -0.033665625 -0.00125 0.012403125 0.139378
152 1 -0.033665625 -0.00125 0.013584375 0.180317
153 1 -0.033665625 0.000116666666667 -0.013584375 0.168969
154 1 -0.033665625 0.000116666666667 -0.012403125 0.288675
155 1 -0.033665625 0.000116666666667 -0.011221875 0.223122
156 1 -0.033665625 0.000116666666667 -0.010040625 0.329143
157 1 -0.033665625 0.000116666666667 -0.008859375 0.264964
158 1 -0.033665625 0.000116666666667 -0.007678125 0.351159
159 1 -0.033665625 0.000116666666667 -0.006496875 0.292008
160 1 -0.033665625 0.000116666666667 -0.005315625 0.362871
161 1 -0.033665625 0.000116666666667 -0.004134375 0.306573
162 1 -0.033665625 0.000116666666667 -0.002953125 0.368314
163 1 -0.033665625 0.000116666666667 -0.001771875 0.317418
164 1 -0.033665625 0.000116666666667 -0.000590625 0.3737
165 1 -0.033665625 0.000116666666667 0.000590625 0.321101
166 1 -0.033665625 0.000116666666667 0.001771875 0.371302
167 1 -0.033665625 0.000116666666667 0.002953125 0.313485
168 1 -0.033665625 0.000116666666667 0.004134375 0.356293
169 1 -0.033665625 0.000116666666667 0.005315625 0.286643
170 1 -0.033665625 0.000116666666667 0.006496875 0.325388
171 1 -0.033665625 0.000116666666667 0.007678125 0.243802
172 1 -0.033665625 0.000116666666667 0.008859375 0.281652
173 1 -0.033665625 0.000116666666667 0.010040625 0.191507
174 1 -0.033665625 0.000116666666667 0.011221875 0.229951
175 1 -0.033665625 0.000116666666667 0.012403125 0.139378
176 1 -0.033665625 0.000116666666667 0.013584375 0.180317
177 1 -0.032484375 -0.00261666666667 -0.018309375 0.109553
178 1 -0.032484375 -0.00261666666667 -0.017128125 0.17268
179 1 -0.032484375 -0.00261666666667 -0.015946875 0.183461
180 1 -0.032484375 -0.00261666666667 -0.014765625 0.238035
181 1 -0.032484375 -0.00261666666667 -0.013584375 0.270828
182 1 -0.032484375 -0.00261666666667 -0.012403125 0.303241
183 1 -0.032484375 -0.00261666666667 -0.011221875 0.347084
184 1 -0.032484375 -0.00261666666667 -0.010040625 0.343783
185 1 -0.032484375 -0.00261666666667 -0.008859375 0.39821
186 1 -0.032484375 -0.00261666666667 -0.007678125 0.365198
187 1 -0.032484375 -0.00261666666667 -0.006496875 0.423474
188 1 -0.032484375 -0.00261666666667 -0.005315625 0.370163
189 1 -0.032484375 -0.00261666666667 -0.004134375 0.436086
190 1 -0.032484375 -0.00261666666667 -0.002953125 0.371219
191 1 -0.032484375 -0.00261666666667 -0.001771875 0.44365
192 1 -0.032484375 -0.00261666666667 -0.000590625 0.372317
193 1 -0.032484375 -0.00261666666667 0.000590625 0.449594
194 1 -0.032484375 -0.00261666666667 0.001771875 0.370274
195 1 -0.032484375 -0.00261666666667 0.002953125 0.446261
196 1 -0.032484375 -0.00261666666667 0.004134375 0.352835
197 1 -0.032484375 -0.00261666666667 0.005315625 0.423312
198 1 -0.032484375 -0.00261666666667 0.006496875 0.318994
199 1 -0.032484375 -0.00261666666667 0.007678125 0.371055
200 1 -0.032484375 -0.00261666666667 0.008859375 0.266025
201 1 -0.032484375 -0.00261666666667 0.010040625 0.299915
202 1 -0.032484375 -0.00261666666667 0.011221875 0.20797
203 1 -0.032484375 -0.00261666666667 0.012403125 0.217752
204 1 -0.032484375 -0.00261666666667 0.013584375 0.151626
205 1 -0.032484375 -0.00261666666667 0.014765625 0.144147
206 1 -0.032484375 -0.00261666666667 0.015946875 0.106635
207 1 -0.032484375 -0.00261666666667 0.017128125 0.0905466
208 1 -0.032484375 -0.00261666666667 0.018309375 0.0763929
209 1 -0.032484375 -0.00125 -0.018309375 0.109553
210 1 -0.032484375 -0.00125 -0.017128125 0.17268
211 1 -0.032484375 -0.00125 -0.015946875 0.183461
212 1 -0.032484375 -0.00125 -0.014765625 0.238035
213 1 -0.032484375 -0.00125 -0.013584375 0.270828
214 1 -0.032484375 -0.00125 -0.012403125 0.303241
215 1 -0.032484375 -0.00125 -0.011221875 0.347084
216 1 -0.032484375 -0.00125 -0.010040625 0.343783
217 1 -0.032484375 -0.00125 -0.008859375 0.39821
218 1 -0.032484375 -0.00125 -0.007678125 0.365198
219 1 -0.032484375 -0.00125 -0.006496875 0.423474
220 1 -0.032484375 -0.00125 -0.005315625 0.370163
221 1 -0.032484375 -0.00125 -0.004134375 0.436086
222 1 -0.032484375 -0.00125 -0.002953125 0.371219
223 1 -0.032484375 -0.00125 -0.001771875 0.44365
224 1 -0.032484375 -0.00125 -0.000590625 0.372317
225 1 -0.032484375 -0.00125 0.000590625 0.449594
226 1 -0.032484375 -0.00125 0.001771875 0.370274
227 1 -0.032484375 -0.00125 0.002953125 0.446261
228 1 -0.032484375 -0.00125 0.004134375 0.352835
229 1 -0.032484375 -0.00125 0.005315625 0.423312
230 1 -0.032484375 -0.00125 0.006496875 0.318994
231 1 -0.032484375 -0.00125 0.007678125 0.371055
232 1 -0.032484375 -0.00125 0.008859375 0.266025
233 1 -0.032484375 -0.00125 0.010040625 0.299915
234 1 -0.032484375 -0.00125 0.011221875 0.20797
235 1 -0.032484375 -0.00125 0.012403125 0.217752
236 1 -0.032484375 -0.00125 0.013584375 0.151626
237 1 -0.032484375 -0.00125 0.014765625 0.144147
238 1 -0.032484375 -0.00125 0.015946875 0.106635
239 1 -0.032484375 -0.00125 0.017128125 0.0905466
240 1 -0.032484375 -0.00125 0.018309375 0.0763929
241 1 -0.032484375 0.000116666666667 -0.018309375 0.109553
242 1 -0.032484375 0.000116666666667 -0.017128125 0.17268
243 1 -0.032484375 0.000116666666667 -0.015946875 0.183461
244 1 -0.032484375 0.000116666666667 -0.014765625 0.238035
245 1 -0.032484375 0.000116666666667 -0.013584375 0.270828
246 1 -0.032484375 0.000116666666667 -0.012403125 0.303241
247 1 -0.032484375 0.000116666666667 -0.011221875 0.347084
248 1 -0.032484375 0.000116666666667 -0.010040625 0.343783
249 1 -0.032484375 0.000116666666667 -0.008859375 0.39821
250 1 -0.032484375 0.000116666666667 -0.007678125 0.365198
251 1 -0.032484375 0.000116666666667 -0.006496875 0.423474
252 1 -0.032484375 0.000116666666667 -0.005315625 0.370163
253 1 -0.032484375 0.000116666666667 -0.004134375 0.436086
254 1 -0.032484375 0.000116666666667 -0.002953125 0.371219
255 1 -0.032484375 0.000116666666667 -0.001771875 0.44365
256 1 -0.032484375 0.000116666666667 -0.000590625 0.372317
257 1 -0.032484375 0.000116666666667 0.000590625 0.449594
258 1 -0.032484375 0.000116666666667 0.001771875 0.370274
259 1 -0.032484375 0.000116666666667 0.002953125 0.446261
260 1 -0.032484375 0.000116666666667 0.004134375 0.352835
261 1 -0.032484375 0.000116666666667 0.005315625 0.423312
262 1 -0.032484375 0.000116666666667 0.006496875 0.318994
263 1 -0.032484375 0.000116666666667 0.007678125 0.371055
264 1 -0.032484375 0.000116666666667 0.008859375 0.266025
265 1 -0.032484375 0.000116666666667 0.010040625 0.299915
266 1 -0.032484375 0.000116666666667 0.011221875 0.20797
267 1 -0.032484375 0.000116666666667 0.012403125 0.217752
268 1 -0.032484375 0.000116666666667 0.013584375 0.151626
269 1 -0.032484375 0.000116666666667 0.014765625 0.144147
270 1 -0.032484375 0.000116666666667 0.015946875 0.106635
271 1 -0.032484375 0.000116666666667 0.017128125 0.0905466
272 1 -0.032484375 0.000116666666667 0.018309375 0.0763929
273 1 -0.031303125 -0.00261666666667 -0.019490625 0.236682
274 1 -0.031303125 -0.00261666666667 -0.018309375 0.206461
275 1 -0.031303125 -0.00261666666667 -0.017128125 0.329588
276 1 -0.031303125 -0.00261666666667 -0.015946875 0.330911
277 1 -0.031303125 -0.00261666666667 -0.014765625 0.424543
278 1 -0.031303125 -0.00261666666667 -0.013584375 0.447696
279 1 -0.031303125 -0.00261666666667 -0.012403125 0.492327
280 1 -0.031303125 -0.00261666666667 -0.011221875 0.529978
281 1 -0.031303125 -0.00261666666667 -0.010040625 0.529579
282 1 -0.031303125 -0.00261666666667 -0.008859375 0.570778
283 1 -0.031303125 -0.00261666666667 -0.007678125 0.54213
284 1 -0.031303125 -0.00261666666667 -0.006496875 0.587016
285 1 -0.031303125 -0.00261666666667 -0.005315625 0.544688
286 1 -0.031303125 -0.00261666666667 -0.004134375 0.586688
287 1 -0.031303125 -0.00261666666667 -0.002953125 0.542163
288 1 -0.031303125 -0.00261666666667 -0.001771875 0.588278
289 1 -0.031303125 -0.00261666666667 -0.000590625 0.545138
290 1 -0.031303125 -0.00261666666667 0.000590625 0.592286
291 1 -0.031303125 -0.00261666666667 0.001771875 0.546551
292 1 -0.031303125 -0.00261666666667 0.002953125 0.595537
293 1 -0.031303125 -0.00261666666667 0.004134375 0.542314
294 1 -0.031303125 -0.00261666666667 0.005315625 0.58223
295 1 -0.031303125 -0.00261666666667 0.006496875 0.521478
296 1 -0.031303125 -0.00261666666667 0.007678125 0.541825
297 1 -0.031303125 -0.00261666666667 0.008859375 0.476821
298 1 -0.031303125 -0.00261666666667 0.010040625 0.468628
299 1 -0.031303125 -0.00261666666667 0.011221875 0.411146
300 1 -0.031303125 -0.00261666666667 0.012403125 0.368772
301 1 -0.031303125 -0.00261666666667 0.013584375 0.327432
302 1 -0.031303125 -0.00261666666667 0.014765625 0.258863
303 1 -0.031303125 -0.00261666666667 0.015946875 0.241861
304 1 -0.031303125 -0.00261666666667 0.017128125 0.167598
305 1 -0.031303125 -0.00261666666667 0.018309375 0.175452
306 1 -0.031303125 -0.00261666666667 0.019490625 0.108095
307 1 -0.031303125 -0.00125 -0.019490625 0.236682
308 1 -0.031303125 -0.00125 -0.018309375 0.206461
309 1 -0.031303125 -0.00125 -0.017128125 0.329588
310 1 -0.031303125 -0.00125 -0.015946875 0.330911
311 1 -0.031303125 -0.00125 -0.014765625 0.424543
312 1 -0.031303125 -0.00125 -0.013584375 0.447696
313 1 -0.031303125 -0.00125 -0.012403125 0.492327
314 1 -0.031303125 -0.00125 -0.011221875 0.529978
315 1 -0.031303125 -0.00125 -0.010040625 0.529579
316 1 -0.031303125 -0.00125 -0.008859375 0.570778
317 1 -0.031303125 -0.00125 -0.007678125 0.54213
318 1 -0.031303125 -0.00125 -0.006496875 0.587016
319 1 -0.031303125 -0.00125 -0.005315625 0.544688
320 1 -0.031303125 -0.00125 -0.004134375 0.586688
321 1 -0.031303125 -0.00125 -0.002953125 0.542163
322 1 -0.031303125 -0.00125 -0.001771875 0.588278
323 1 -0.031303125 -0.00125 -0.000590625 0.545138
324 1 -0.031303125 -0.00125 0.000590625 0.592286
325 1 -0.031303125 -0.00125 0.001771875 0.546551
326 1 -0.031303125 -0.00125 0.002953125 0.595537
327 1 -0.031303125 -0.00125 0.004134375 0.542314
328 1 -0.031303125 -0.00125 0.005315625 0.58223
329 1 -0.031303125 -0.00125 0.006496875 0.521478
330 1 -0.031303125 -0.00125 0.007678125 0.541825
331 1 -0.031303125 -0.00125 0.008859375 0.476821
332 1 -0.031303125 -0.00125 0.010040625 0.468628
333 1 -0.031303125 -0.00125 0.011221875 0.411146
334 1 -0.031303125 -0.00125 0.012403125 0.368772
335 1 -0.031303125 -0.00125 0.013584375 0.327432
336 1 -0.031303125 -0.00125 0.014765625 0.258863
337 1 -0.031303125 -0.00125 0.015946875 0.241861
338 1 -0.031303125 -0.00125 0.017128125 0.167598
339 1 -0.031303125 -0.00125 0.018309375 0.175452
340 1 -0.031303125 -0.00125 0.019490625 0.108095
341 1 -0.031303125 0.000116666666667 -0.019490625 0.236682
342 1 -0.031303125 0.000116666666667 -0.018309375 0.206461
343 1 -0.031303125 0.000116666666667 -0.017128125 0.329588
344 1 -0.031303125 0.000116666666667 -0.015946875 0.330911
345 1 -0.031303125 0.000116666666667 -0.014765625 0.424543
346 1 -0.031303125 0.000116666666667 -0.013584375 0.447696
347 1 -0.031303125 0.000116666666667 -0.012403125 0.492327
348 1 -0.031303125 0.000116666666667 -0.011221875 0.529978
349 1 -0.031303125 0.000116666666667 -0.010040625 0.529579
350 1 -0.031303125 0.000116666666667 -0.008859375 0.570778
351 1 -0.031303125 0.000116666666667 -0.007678125 0.54213
352 1 -0.031303125 0.000116666666667 -0.006496875 0.587016
353 1 -0.031303125 0.000116666666667 -0.005315625 0.544688
354 1 -0.031303125 0.000116666666667 -0.004134375 0.586688
355 1 -0.031303125 0.000116666666667 -0.002953125 0.542163
356 1 -0.031303125 0.000116666666667 -0.001771875 0.588278
357 1 -0.031303125 0.000116666666667 -0.000590625 0.545138
358 1 -0.031303125 0.000116666666667 0.000590625 0.592286
359 1 -0.031303125 0.000116666666667 0.001771875 0.546551
360 1 -0.031303125 0.000116666666667 0.002953125 0.595537
361 1 -0.031303125 0.000116666666667 0.004134375 0.542314
362 1 -0.031303125 0.000116666666667 0.005315625 0.58223
363 1 -0.031303125 0.000116666666667 0.006496875 0.521478
364 1 -0.031303125 0.000116666666667 0.007678125 0.541825
365 1 -0.031303125 0.000116666666667 0.008859375 0.476821
366 1 -0.031303125 0.000116666666667 0.010040625 0.468628
367 1 -0.031303125 0.000116666666667 0.011221875 0.411146
368 1 -0.031303125 0.000116666666667 0.012403125 0.368772
369 1 -0.031303125 0.000116666666667 0.013584375 0.327432
370 1 -0.031303125 0.000116666666667 0.014765625 0.258863
371 1 -0.031303125 0.000116666666667 0.015946875 0.241861
372 1 -0.031303125 0.000116666666667 0.017128125 0.167598
373 1 -0.031303125 0.000116666666667 0.018309375 0.175452
374 1 -0.031303125 0.000116666666667 0.019490625 0.108095
375 1 -0.030121875 -0.00261666666667 -0.020671875 0.156431
376 1 -0.030121875 -0.00261666666667 -0.019490625 0.23415
377 1 -0.030121875 -0.00261666666667 -0.018309375 0.274774
378 1 -0.030121875 -0.00261666666667 -0.017128125 0.350524
379 1 -0.030121875 -0.00261666666667 -0.015946875 0.408024
380 1 -0.030121875 -0.00261666666667 -0.014765625 0.443939
381 1 -0.030121875 -0.00261666666667 -0.013584375 0.511843
382 1 -0.030121875 -0.00261666666667 -0.012403125 0.49978
383 1 -0.030121875 -0.00261666666667 -0.011221875 0.565084
384 1 -0.030121875 -0.00261666666667 -0.010040625 0.523544
385 1 -0.030121875 -0.00261666666667 -0.008859375 0.586321
386 1 -0.030121875 -0.00261666666667 -0.007678125 0.531694
387 1 -0.030121875 -0.00261666666667 -0.006496875 0.587214
388 1 -0.030121875 -0.00261666666667 -0.005315625 0.529861
389 1 -0.030121875 -0.00261666666667 -0.004134375 0.582696
390 1 -0.030121875 -0.00261666666667 -0.002953125 0.525127
391 1 -0.030121875 -0.00261666666667 -0.001771875 0.582875
392 1 -0.030121875 -0.00261666666667 -0.000590625 0.525333
393 1 -0.030121875 -0.00261666666667 0.000590625 0.59048
394 1 -0.030121875 -0.00261666666667 0.001771875 0.52744
395 1 -0.030121875 -0.00261666666667 0.002953125 0.600454
396 1 -0.030121875 -0.00261666666667 0.004134375 0.518834
397 1 -0.030121875 -0.00261666666667 0.005315625 0.605363
398 1 -0.030121875 -0.00261666666667 0.006496875 0.497057
399 1 -0.030121875 -0.00261666666667 0.007678125 0.588519
400 1 -0.030121875 -0.00261666666667 0.008859375 0.454932
401 1 -0.030121875 -0.00261666666667 0.010040625 0.549844
402 1 -0.030121875 -0.00261666666667 0.011221875 0.398523
403 1 -0.030121875 -0.00261666666667 0.012403125 0.469351
404 1 -0.030121875 -0.00261666666667 0.013584375 0.313739
405 1 -0.030121875 -0.00261666666667 0.014765625 0.343188
406 1 -0.030121875 -0.00261666666667 0.015946875 0.219366
407 1 -0.030121875 -0.00261666666667 0.017128125 0.225266
408 1 -0.030121875 -0.00261666666667 0.018309375 0.150377
409 1 -0.030121875 -0.00261666666667 0.019490625 0.143666
410 1 -0.030121875 -0.00261666666667 0.020671875 0.108708
411 1 -0.030121875 -0.00125 -0.020671875 0.156431
412 1 -0.030121875 -0.00125 -0.019490625 0.23415
413 1 -0.030121875 -0.00125 -0.018309375 0.274774
414 1 -0.030121875 -0.00125 -0.017128125 0.350524
415 1 -0.030121875 -0.00125 -0.015946875 0.408024
416 1 -0.030121875 -0.00125 -0.014765625 0.443939
417 1 -0.030121875 -0.00125 -0.013584375 0.511843
418 1 -0.030121875 -0.00125 -0.012403125 0.49978
419 1 -0.030121875 -0.00125 -0.011221875 0.565084
420 1 -0.030121875 -0.00125 -0.010040625 0.523544
421 1 -0.030121875 -0.00125 -0.008859375 0.586321
422 1 -0.030121875 -0.00125 -0.007678125 0.531694
423 1 -0.030121875 -0.00125 -0.006496875 0.587214
424 1 -0.030121875 -0.00125 -0.005315625 0.529861
425 1 -0.030121875 -0.00125 -0.004134375 0.582696
426 1 -0.030121875 -0.00125 -0.002953125 0.525127
427 1 -0.030121875 -0.00125 -0.001771875 0.582875
428 1 -0.030121875 -0.00125 -0.000590625 0.525333
429 1 -0.030121875 -0.00125 0.000590625 0.59048
430 1 -0.030121875 -0.00125 0.001771875 0.52744
431 1 -0.030121875 -0.00125 0.002953125 0.600454
432 1 -0.030121875 -0.00125 0.004134375 0.518834
433 1 -0.030121875 -0.00125 0.005315625 0.605363
434 1 -0.030121875 -0.00125 0.006496875 0.497057
435 1 -0.030121875 -0.00125 0.007678125 0.588519
436 1 -0.030121875 -0.00125 0.008859375 0.454932
437 1 -0.030121875 -0.00125 0.010040625 0.549844
438 1 -0.030121875 -0.00125 0.011221875 0.398523
439 1 -0.030121875 -0.00125 0.012403125 0.469351
440 1 -0.030121875 -0.00125 0.013584375 0.313739
441 1 -0.030121875 -0.00125 0.014765625 0.343188
442 1 -0.030121875 -0.00125 0.015946875 0.219366
443 1 -0.030121875 -0.00125 0.017128125 0.225266
444 1 -0.030121875 -0.00125 0.018309375 0.150377
445 1 -0.030121875 -0.00125 0.019490625 0.143666
446 1 -0.030121875 -0.00125 0.020671875 0.108708
447 1 -0.030121875 0.000116666666667 -0.020671875 0.156431
448 1 -0.030121875 0.000116666666667 -0.019490625 0.23415
449 1 -0.030121875 0.000116666666667 -0.018309375 0.274774
450 1 -0.030121875 0.000116666666667 -0.017128125 0.350524
451 1 -0.030121875 0.000116666666667 -0.015946875 0.408024
452 1 -0.030121875 0.000116666666667 -0.014765625 0.443939
453 1 -0.030121875 0.000116666666667 -0.013584375 0.511843
454 1 -0.030121875 0.000116666666667 -0.012403125 0.49978
455 1 -0.030121875 0.000116666666667 -0.011221875 0.565084
456 1 -0.030121875 0.000116666666667 -0.010040625 0.523544
457 1 -0.030121875 0.000116666666667 -0.008859375 0.586321
458 1 -0.030121875 0.000116666666667 -0.007678125 0.531694
459 1 -0.030121875 0.000116666666667 -0.006496875 0.587214
460 1 -0.030121875 0.000116666666667 -0.005315625 0.529861
461 1 -0.030121875 0.000116666666667 -0.004134375 0.582696
462 1 -0.030121875 0.000116666666667 -0.002953125 0.525127
463 1 -0.030121875 0.000116666666667 -0.001771875 0.582875
464 1 -0.030121875 0.000116666666667 -0.000590625 0.525333
465 1 -0.030121875 0.000116666666667 0.000590625 0.59048
466 1 -0.030121875 0.000116666666667 0.001771875 0.52744
467 1 -0.030121875 0.000116666666667 0.002953125 0.600454
468 1 -0.030121875 0.000116666666667 0.004134375 0.518834
469 1 -0.030121875 0.000116666666667 0.005315625 0.605363
470 1 -0.030121875 0.000116666666667 0.006496875 0.497057
471 1 -0.030121875 0.000116666666667 0.007678125 0.588519
472 1 -0.030121875 0.000116666666667 0.008859375 0.454932
473 1 -0.030121875 0.000116666666667 0.010040625 0.549844
474 1 -0.030121875 0.000116666666667 0.011221875 0.398523
475 1 -0.030121875 0.000116666666667 0.012403125 0.469351
476 1 -0.030121875 0.000116666666667 0.013584375 0.313739
477 1 -0.030121875 0.000116666666667 0.014765625 0.343188
478 1 -0.030121875 0.000116666666667 0.015946875 0.219366
479 1 -0.030121875 0.000116666666667 0.017128125 0.225266
480 1 -0.030121875 0.000116666666667 0.018309375 0.150377
481 1 -0.030121875 0.000116666666667 0.019490625 0.143666
482 1 -0.030121875 0.000116666666667 0.020671875 0.108708
483 1 -0.028940625 -0.00261666666667 -0.021853125 0.257256
484 1 -0.028940625 -0.00261666666667 -0.020671875 0.232405
485 1 -0.028940625 -0.00261666666667 -0.019490625 0.369436
486 1 -0.028940625 -0.00261666666667 -0.018309375 0.386946
487 1 -0.028940625 -0.00261666666667 -0.017128125 0.481729
488 1 -0.028940625 -0.00261666666667 -0.015946875 0.528506
489 1 -0.028940625 -0.00261666666667 -0.014765625 0.55149
490 1 -0.028940625 -0.00261666666667 -0.013584375 0.589996
491 1 -0.028940625 -0.00261666666667 -0.012403125 0.573617
492 1 -0.028940625 -0.00261666666667 -0.011221875 0.607764
493 1 -0.028940625 -0.00261666666667 -0.010040625 0.583507
494 1 -0.028940625 -0.00261666666667 -0.008859375 0.611071
495 1 -0.028940625 -0.00261666666667 -0.007678125 0.582191
496 1 -0.028940625 -0.00261666666667 -0.006496875 0.610661
497 1 -0.028940625 -0.00261666666667 -0.005315625 0.58131
498 1 -0.028940625 -0.00261666666667 -0.004134375 0.607127
499 1 -0.028940625 -0.00261666666667 -0.002953125 0.57885
500 1 -0.028940625 -0.00261666666667 -0.001771875 0.608809
501 1 -0.028940625 -0.00261666666667 -0.000590625 0.583326
502 1 -0.028940625 -0.00261666666667 0.000590625 0.614528
503 1 -0.028940625 -0.00261666666667 0.001771875 0.587714
504 1 -0.028940625 -0.00261666666667 0.002953125 0.623324
505 1 -0.028940625 -0.00261666666667 0.004134375 0.589963
506 1 -0.028940625 -0.00261666666667 0.005315625 0.627519
507 1 -0.028940625 -0.00261666666667 0.006496875 0.585007
508 1 -0.028940625 -0.00261666666667 0.007678125 0.624995
509 1 -0.028940625 -0.00261666666667 0.008859375 0.570212
510 1 -0.028940625 -0.00261666666667 0.010040625 0.613473
511 1 -0.028940625 -0.00261666666667 0.011221875 0.540995
512 1 -0.028940625 -0.00261666666667 0.012403125 0.567707
513 1 -0.028940625 -0.00261666666667 0.013584375 0.479333
514 1 -0.028940625 -0.00261666666667 0.014765625 0.468903
515 1 -0.028940625 -0.00261666666667 0.015946875 0.384952
516 1 -0.028940625 -0.00261666666667 0.017128125 0.337824
517 1 -0.028940625 -0.00261666666667 0.018309375 0.288251
518 1 -0.028940625 -0.00261666666667 0.019490625 0.228955
519 1 -0.028940625 -0.00261666666667 0.020671875 0.218013
520 1 -0.028940625 -0.00261666666667 0.021853125 0.157708
521 1 -0.028940625 -0.00125 -0.021853125 0.257256
522 1 -0.028940625 -0.00125 -0.020671875 0.232405
523 1 -0.028940625 -0.00125 -0.019490625 0.369436
524 1 -0.028940625 -0.00125 -0.018309375 0.386946
525 1 -0.028940625 -0.00125 -0.017128125 0.481729
526 1 -0.028940625 -0.00125 -0.015946875 0.528506
527 1 -0.028940625 -0.00125 -0.014765625 0.55149
528 1 -0.028940625 -0.00125 -0.013584375 0.589996
529 1 -0.028940625 -0.00125 -0.012403125 0.573617
530 1 -0.028940625 -0.00125 -0.011221875 0.607764
531 1 -0.028940625 -0.00125 -0.010040625 0.583507
532 1 -0.028940625 -0.00125 -0.008859375 0.611071
533 1 -0.028940625 -0.00125 -0.007678125 0.582191
534 1 -0.028940625 -0.00125 -0.006496875 0.610661
535 1 -0.028940625 -0.00125 -0.005315625 0.58131
536 1 -0.028940625 -0.00125 -0.004134375 0.607127
537 1 -0.028940625 -0.00125 -0.002953125 0.57885