ITEM: TIMESTEP
0
ITEM: NUMBER OF ATOMS
9240
ITEM: BOX BOUNDS ss ss ss
-3.7007399999999996e-02 3.7007399999999996e-02
-2.0002499999999999e-03 2.5000000000000004e-07
-3.7007399999999996e-02 3.7007399999999996e-02
ITEM: ATOMS id type x y z c_1
0 1 -0.037209375 -0.00261666666667 -0.000590625 0.379504
1 1 -0.037209375 -0.00125 -0.000590625 0.379504
2 1 -0.037209375 0.000116666666667 -0.000590625 0.379504
3 1 -0.036028125 -0.00261666666667 -0.007678125 0.410141
4 1 -0.036028125 -0.00261666666667 -0.006496875 0.312171
5 1 -0.036028125 -0.00261666666667 -0.005315625 0.43405
6 1 -0.036028125 -0.00261666666667 -0.004134375 0.331167
7 1 -0.036028125 -0.00261666666667 -0.002953125 0.453867
8 1 -0.036028125 -0.00261666666667 -0.001771875 0.348452
9 1 -0.036028125 -0.00261666666667 -0.000590625 0.47051
10 1 -0.036028125 -0.00261666666667 0.000590625 0.360094
11 1 -0.036028125 -0.00261666666667 0.001771875 0.47872
12 1 -0.036028125 -0.00261666666667 0.002953125 0.365089
13 1 -0.036028125 -0.00261666666667 0.004134375 0.477765
14 1 -0.036028125 -0.00261666666667 0.005315625 0.361735
15 1 -0.036028125 -0.00261666666667 0.006496875 0.468236
16 1 -0.036028125 -0.00261666666667 0.007678125 0.352784
17 1 -0.036028125 -0.00125 -0.007678125 0.410141
18 1 -0.036028125 -0.00125 -0.006496875 0.312171
19 1 -0.036028125 -0.00125 -0.005315625 0.43405
20 1 -0.036028125 -0.00125 -0.004134375 0.331167
21 1 -0.036028125 -0.00125 -0.002953125 0.453867
22 1 -0.036028125 -0.00125 -0.001771875 0.348452
23 1 -0.036028125 -0.00125 -0.000590625 0.47051
24 1 -0.036028125 -0.00125 0.000590625 0.360094
25 1 -0.036028125 -0.00125 0.001771875 0.47872
26 1 -0.036028125 -0.00125 0.002953125 0.365089
27 1 -0.036028125 -0.00125 0.004134375 0.477765
28 1 -0.036028125 -0.00125 0.005315625 0.361735
29 1 -0.036028125 -0.00125 0.006496875 0.468236
30 1 -0.036028125 -0.00125 0.007678125 0.352784
31 1 -0.036028125 0.000116666666667 -0.007678125 0.410141
32 1 -0.036028125 0.000116666666667 -0.006496875 0.312171
33 1 -0.036028125 0.000116666666667 -0.005315625 0.43405
34 1 -0.036028125 0.000116666666667 -0.004134375 0.331167
35 1 -0.036028125 0.000116666666667 -0.002953125 0.453867
36 1 -0.036028125 0.000116666666667 -0.001771875 0.348452
37 1 -0.036028125 0.000116666666667 -0.000590625 0.47051
38 1 -0.036028125 0.000116666666667 0.000590625 0.360094
39 1 -0.036028125 0.000116666666667 0.001771875 0.47872
40 1 -0.036028125 0.000116666666667 0.002953125 0.365089
41 1 -0.036028125 0.000116666666667 0.004134375 0.477765
42 1 -0.036028125 0.000116666666667 0.005315625 0.361735
43 1 -0.036028125 0.000116666666667 0.006496875 0.468236
44 1 -0.036028125 0.000116666666667 0.007678125 0.352784
45 1 -0.034846875 -0.00261666666667 -0.011221875 0.219516
46 1 -0.034846875 -0.00261666666667 -0.010040625 0.292298
47 1 -0.034846875 -0.00261666666667 -0.008859375 0.25169
48 1 -0.034846875 -0.00261666666667 -0.007678125 0.312561
49 1 -0.034846875 -0.00261666666667 -0.006496875 0.284221
50 1 -0.034846875 -0.00261666666667 -0.005315625 0.33116
51 1 -0.034846875 -0.00261666666667 -0.004134375 0.317641
52 1 -0.034846875 -0.00261666666667 -0.002953125 0.348864
53 1 -0.034846875 -0.00261666666667 -0.001771875 0.346998
54 1 -0.034846875 -0.00261666666667 -0.000590625 0.363637
55 1 -0.034846875 -0.00261666666667 0.000590625 0.370328
56 1 -0.034846875 -0.00261666666667 0.001771875 0.373521
57 1 -0.034846875 -0.00261666666667 0.002953125 0.38167
58 1 -0.034846875 -0.00261666666667 0.004134375 0.371729
59 1 -0.034846875 -0.00261666666667 0.005315625 0.381997
60 1 -0.034846875 -0.00261666666667 0.006496875 0.362427
61 1 -0.034846875 -0.00261666666667 0.007678125 0.369987
62 1 -0.034846875 -0.00261666666667 0.008859375 0.34437
63 1 -0.034846875 -0.00261666666667 0.010040625 0.347576
64 1 -0.034846875 -0.00261666666667 0.011221875 0.323301
65 1 -0.034846875 -0.00125 -0.011221875 0.219516
66 1 -0.034846875 -0.00125 -0.010040625 0.292298
67 1 -0.034846875 -0.00125 -0.008859375 0.25169
68 1 -0.034846875 -0.00125 -0.007678125 0.312561
69 1 -0.034846875 -0.00125 -0.006496875 0.284221
70 1 -0.034846875 -0.00125 -0.005315625 0.33116
71 1 -0.034846875 -0.00125 -0.004134375 0.317641
72 1 -0.034846875 -0.00125 -0.002953125 0.348864
73 1 -0.034846875 -0.00125 -0.001771875 0.346998
74 1 -0.034846875 -0.00125 -0.000590625 0.363637
75 1 -0.034846875 -0.00125 0.000590625 0.370328
76 1 -0.034846875 -0.00125 0.001771875 0.373521
77 1 -0.034846875 -0.00125 0.002953125 0.38167
78 1 -0.034846875 -0.00125 0.004134375 0.371729
79 1 -0.034846875 -0.00125 0.005315625 0.381997
80 1 -0.034846875 -0.00125 0.006496875 0.362427
81 1 -0.034846875 -0.00125 0.007678125 0.369987
82 1 -0.034846875 -0.00125 0.008859375 0.34437
83 1 -0.034846875 -0.00125 0.010040625 0.347576
84 1 -0.034846875 -0.00125 0.011221875 0.323301
85 1 -0.034846875 0.000116666666667 -0.011221875 0.219516
86 1 -0.034846875 0.000116666666667 -0.010040625 0.292298
87 1 -0.034846875 0.000116666666667 -0.008859375 0.25169
88 1 -0.034846875 0.000116666666667 -0.007678125 0.312561
89 1 -0.034846875 0.000116666666667 -0.006496875 0.284221
90 1 -0.034846875 0.000116666666667 -0.005315625 0.33116
91 1 -0.034846875 0.000116666666667 -0.004134375 0.317641
92 1 -0.034846875 0.000116666666667 -0.002953125 0.348864
93 1 -0.034846875 0.000116666666667 -0.001771875 0.346998
94 1 -0.034846875 0.000116666666667 -0.000590625 0.363637
95 1 -0.034846875 0.000116666666667 0.000590625 0.370328
96 1 -0.034846875 0.000116666666667 0.001771875 0.373521
97 1 -0.034846875 0.000116666666667 0.002953125 0.38167
98 1 -0.034846875 0.000116666666667 0.004134375 0.371729
99 1 -0.034846875 0.000116666666667 0.005315625 0.381997
100 1 -0.034846875 0.000116666666667 0.006496875 0.362427
101 1 -0.034846875 0.000116666666667 0.007678125 0.369987
102 1 -0.034846875 0.000116666666667 0.008859375 0.34437
103 1 -0.034846875 0.000116666666667 0.010040625 0.347576
104 1 -0.034846875 0.000116666666667 0.011221875 0.323301
105 1 -0.033665625 -0.00261666666667 -0.013584375 0.244664
106 1 -0.033665625 -0.00261666666667 -0.012403125 0.362508
107 1 -0.033665625 -0.00261666666667 -0.011221875 0.280837
108 1 -0.033665625 -0.00261666666667 -0.010040625 0.402096
109 1 -0.033665625 -0.00261666666667 -0.008859375 0.316902
110 1 -0.033665625 -0.00261666666667 -0.007678125 0.436522
111 1 -0.033665625 -0.00261666666667 -0.006496875 0.351931
112 1 -0.033665625 -0.00261666666667 -0.005315625 0.468229
113 1 -0.033665625 -0.00261666666667 -0.004134375 0.381692
114 1 -0.033665625 -0.00261666666667 -0.002953125 0.493057
115 1 -0.033665625 -0.00261666666667 -0.001771875 0.407333
116 1 -0.033665625 -0.00261666666667 -0.000590625 0.512291
117 1 -0.033665625 -0.00261666666667 0.000590625 0.425652
118 1 -0.033665625 -0.00261666666667 0.001771875 0.522154
119 1 -0.033665625 -0.00261666666667 0.002953125 0.434458
120 1 -0.033665625 -0.00261666666667 0.004134375 0.520815
121 1 -0.033665625 -0.00261666666667 0.005315625 0.430402
122 1 -0.033665625 -0.00261666666667 0.006496875 0.507562
123 1 -0.033665625 -0.00261666666667 0.007678125 0.416581
124 1 -0.033665625 -0.00261666666667 0.008859375 0.48595
125 1 -0.033665625 -0.00261666666667 0.010040625 0.391937
126 1 -0.033665625 -0.00261666666667 0.011221875 0.454389
127 1 -0.033665625 -0.00261666666667 0.012403125 0.360232
128 1 -0.033665625 -0.00261666666667 0.013584375 0.419322
129 1 -0.033665625 -0.00125 -0.013584375 0.244664
130 1 -0.033665625 -0.00125 -0.012403125 0.362508
131 1 -0.033665625 -0.00125 -0.011221875 0.280837
132 1 -0.033665625 -0.00125 -0.010040625 0.402096
133 1 -0.033665625 -0.00125 -0.008859375 0.316902
134 1 -0.033665625 -0.00125 -0.007678125 0.436522
135 1 -0.033665625 -0.00125 -0.006496875 0.351931
136 1 -0.033665625 -0.00125 -0.005315625 0.468229
137 1 -0.033665625 -0.00125 -0.004134375 0.381692
138 1 -0.033665625 -0.00125 -0.002953125 0.493057
139 1 -0.033665625 -0.00125 -0.001771875 0.407333
140 1 -0.033665625 -0.00125 -0.000590625 0.512291
141 1 -0.033665625 -0.00125 0.000590625 0.425652
142 1 -0.033665625 -0.00125 0.001771875 0.522154
143 1 -0.033665625 -0.00125 0.002953125 0.434458
144 1 -0.033665625 -0.00125 0.004134375 0.520815
145 1 -0.033665625 -0.00125 0.005315625 0.430402
146 1 -0.033665625 -0.00125 0.006496875 0.507562
147 1 -0.033665625 -0.00125 0.007678125 0.416581
148 1 -0.033665625 -0.00125 0.008859375 0.48595
149 1 -0.033665625 -0.00125 0.010040625 0.391937
150 1 -0.033665625 -0.00125 0.011221875 0.454389
151 1 -0.033665625 -0.00125 0.012403125 0.360232
152 1 -0.033665625 -0.00125 0.013584375 0.419322
153 1 -0.033665625 0.000116666666667 -0.013584375 0.244664
154 1 -0.033665625 0.000116666666667 -0.012403125 0.362508
155 1 -0.033665625 0.000116666666667 -0.011221875 0.280837
156 1 -0.033665625 0.000116666666667 -0.010040625 0.402096
157 1 -0.033665625 0.000116666666667 -0.008859375 0.316902
158 1 -0.033665625 0.000116666666667 -0.007678125 0.436522
159 1 -0.033665625 0.000116666666667 -0.006496875 0.351931
160 1 -0.033665625 0.000116666666667 -0.005315625 0.468229
161 1 -0.033665625 0.000116666666667 -0.004134375 0.381692
162 1 -0.033665625 0.000116666666667 -0.002953125 0.493057
163 1 -0.033665625 0.000116666666667 -0.001771875 0.407333
164 1 -0.033665625 0.000116666666667 -0.000590625 0.512291
165 1 -0.033665625 0.000116666666667 0.000590625 0.425652
166 1 -0.033665625 0.000116666666667 0.001771875 0.522154
167 1 -0.033665625 0.000116666666667 0.002953125 0.434458
168 1 -0.033665625 0.000116666666667 0.004134375 0.520815
169 1 -0.033665625 0.000116666666667 0.005315625 0.430402
170 1 -0.033665625 0.000116666666667 0.006496875 0.507562
171 1 -0.033665625 0.000116666666667 0.007678125 0.416581
172 1 -0.033665625 0.000116666666667 0.008859375 0.48595
173 1 -0.033665625 0.000116666666667 0.010040625 0.391937
174 1 -0.033665625 0.000116666666667 0.011221875 0.454389
175 1 -0.033665625 0.000116666666667 0.012403125 0.360232
176 1 -0.033665625 0.000116666666667 0.013584375 0.419322
177 1 -0.032484375 -0.00261666666667 -0.018309375 0.125401
178 1 -0.032484375 -0.00261666666667 -0.017128125 0.216153
179 1 -0.032484375 -0.00261666666667 -0.015946875 0.154436
180 1 -0.032484375 -0.00261666666667 -0.014765625 0.248523
181 1 -0.032484375 -0.00261666666667 -0.013584375 0.196324
182 1 -0.032484375 -0.00261666666667 -0.012403125 0.28505
183 1 -0.032484375 -0.00261666666667 -0.011221875 0.243607
184 1 -0.032484375 -0.00261666666667 -0.010040625 0.318767
185 1 -0.032484375 -0.00261666666667 -0.008859375 0.293821
186 1 -0.032484375 -0.00261666666667 -0.007678125 0.350835
187 1 -0.032484375 -0.00261666666667 -0.006496875 0.343012
188 1 -0.032484375 -0.00261666666667 -0.005315625 0.378353
189 1 -0.032484375 -0.00261666666667 -0.004134375 0.389641
190 1 -0.032484375 -0.00261666666667 -0.002953125 0.40325
191 1 -0.032484375 -0.00261666666667 -0.001771875 0.425965
192 1 -0.032484375 -0.00261666666667 -0.000590625 0.421024
193 1 -0.032484375 -0.00261666666667 0.000590625 0.454957
194 1 -0.032484375 -0.00261666666667 0.001771875 0.432689
195 1 -0.032484375 -0.00261666666667 0.002953125 0.469086
196 1 -0.032484375 -0.00261666666667 0.004134375 0.427493
197 1 -0.032484375 -0.00261666666667 0.005315625 0.468185
198 1 -0.032484375 -0.00261666666667 0.006496875 0.412605
199 1 -0.032484375 -0.00261666666667 0.007678125 0.449517
200 1 -0.032484375 -0.00261666666667 0.008859375 0.385689
201 1 -0.032484375 -0.00261666666667 0.010040625 0.417123
202 1 -0.032484375 -0.00261666666667 0.011221875 0.3533
203 1 -0.032484375 -0.00261666666667 0.012403125 0.372633
204 1 -0.032484375 -0.00261666666667 0.013584375 0.317515
205 1 -0.032484375 -0.00261666666667 0.014765625 0.320529
206 1 -0.032484375 -0.00261666666667 0.015946875 0.28341
207 1 -0.032484375 -0.00261666666667 0.017128125 0.270505
208 1 -0.032484375 -0.00261666666667 0.018309375 0.255551
209 1 -0.032484375 -0.00125 -0.018309375 0.125401
210 1 -0.032484375 -0.00125 -0.017128125 0.216153
211 1 -0.032484375 -0.00125 -0.015946875 0.154436
212 1 -0.032484375 -0.00125 -0.014765625 0.248523
213 1 -0.032484375 -0.00125 -0.013584375 0.196324
214 1 -0.032484375 -0.00125 -0.012403125 0.28505
215 1 -0.032484375 -0.00125 -0.011221875 0.243607
216 1 -0.032484375 -0.00125 -0.010040625 0.318767
217 1 -0.032484375 -0.00125 -0.008859375 0.293821
218 1 -0.032484375 -0.00125 -0.007678125 0.350835
219 1 -0.032484375 -0.00125 -0.006496875 0.343012
220 1 -0.032484375 -0.00125 -0.005315625 0.378353
221 1 -0.032484375 -0.00125 -0.004134375 0.389641
222 1 -0.032484375 -0.00125 -0.002953125 0.40325
223 1 -0.032484375 -0.00125 -0.001771875 0.425965
224 1 -0.032484375 -0.00125 -0.000590625 0.421024
225 1 -0.032484375 -0.00125 0.000590625 0.454957
226 1 -0.032484375 -0.00125 0.001771875 0.432689
227 1 -0.032484375 -0.00125 0.002953125 0.469086
228 1 -0.032484375 -0.00125 0.004134375 0.427493
229 1 -0.032484375 -0.00125 0.005315625 0.468185
230 1 -0.032484375 -0.00125 0.006496875 0.412605
231 1 -0.032484375 -0.00125 0.007678125 0.449517
232 1 -0.032484375 -0.00125 0.008859375 0.385689
233 1 -0.032484375 -0.00125 0.010040625 0.417123
234 1 -0.032484375 -0.00125 0.011221875 0.3533
235 1 -0.032484375 -0.00125 0.012403125 0.372633
236 1 -0.032484375 -0.00125 0.013584375 0.317515
237 1 -0.032484375 -0.00125 0.014765625 0.320529
238 1 -0.032484375 -0.00125 0.015946875 0.28341
239 1 -0.032484375 -0.00125 0.017128125 0.270505
240 1 -0.032484375 -0.00125 0.018309375 0.255551
241 1 -0.032484375 0.000116666666667 -0.018309375 0.125401
242 1 -0.032484375 0.000116666666667 -0.017128125 0.216153
243 1 -0.032484375 0.000116666666667 -0.015946875 0.154436
244 1 -0.032484375 0.000116666666667 -0.014765625 0.248523
245 1 -0.032484375 0.000116666666667 -0.013584375 0.196324
246 1 -0.032484375 0.000116666666667 -0.012403125 0.28505
247 1 -0.032484375 0.000116666666667 -0.011221875 0.243607
248 1 -0.032484375 0.000116666666667 -0.010040625 0.318767
249 1 -0.032484375 0.000116666666667 -0.008859375 0.293821
250 1 -0.032484375 0.000116666666667 -0.007678125 0.350835
251 1 -0.032484375 0.000116666666667 -0.006496875 0.343012
252 1 -0.032484375 0.000116666666667 -0.005315625 0.378353
253 1 -0.032484375 0.000116666666667 -0.004134375 0.389641
254 1 -0.032484375 0.000116666666667 -0.002953125 0.40325
255 1 -0.032484375 0.000116666666667 -0.001771875 0.425965
256 1 -0.032484375 0.000116666666667 -0.000590625 0.421024
257 1 -0.032484375 0.000116666666667 0.000590625 0.454957
258 1 -0.032484375 0.000116666666667 0.001771875 0.432689
259 1 -0.032484375 0.000116666666667 0.002953125 0.469086
260 1 -0.032484375 0.000116666666667 0.004134375 0.427493
261 1 -0.032484375 0.000116666666667 0.005315625 0.468185
262 1 -0.032484375 0.000116666666667 0.006496875 0.412605
263 1 -0.032484375 0.000116666666667 0.007678125 0.449517
264 1 -0.032484375 0.000116666666667 0.008859375 0.385689
265 1 -0.032484375 0.000116666666667 0.010040625 0.417123
266 1 -0.032484375 0.000116666666667 0.011221875 0.3533
267 1 -0.032484375 0.000116666666667 0.012403125 0.372633
268 1 -0.032484375 0.000116666666667 0.013584375 0.317515
269 1 -0.032484375 0.000116666666667 0.014765625 0.320529
270 1 -0.032484375 0.000116666666667 0.015946875 0.28341
271 1 -0.032484375 0.000116666666667 0.017128125 0.270505
272 1 -0.032484375 0.000116666666667 0.018309375 0.255551
273 1 -0.031303125 -0.00261666666667 -0.019490625 0.263088
274 1 -0.031303125 -0.00261666666667 -0.018309375 0.202243
275 1 -0.031303125 -0.00261666666667 -0.017128125 0.308761
276 1 -0.031303125 -0.00261666666667 -0.015946875 0.245567
277 1 -0.031303125 -0.00261666666667 -0.014765625 0.361743
278 1 -0.031303125 -0.00261666666667 -0.013584375 0.294674
279 1 -0.031303125 -0.00261666666667 -0.012403125 0.415396
280 1 -0.031303125 -0.00261666666667 -0.011221875 0.34543
281 1 -0.031303125 -0.00261666666667 -0.010040625 0.461229
282 1 -0.031303125 -0.00261666666667 -0.008859375 0.391898
283 1 -0.031303125 -0.00261666666667 -0.007678125 0.498044
284 1 -0.031303125 -0.00261666666667 -0.006496875 0.434348
285 1 -0.031303125 -0.00261666666667 -0.005315625 0.529727
286 1 -0.031303125 -0.00261666666667 -0.004134375 0.465674
287 1 -0.031303125 -0.00261666666667 -0.002953125 0.553032
288 1 -0.031303125 -0.00261666666667 -0.001771875 0.490216
289 1 -0.031303125 -0.00261666666667 -0.000590625 0.57063
290 1 -0.031303125 -0.00261666666667 0.000590625 0.50519
291 1 -0.031303125 -0.00261666666667 0.001771875 0.578736
292 1 -0.031303125 -0.00261666666667 0.002953125 0.511552
293 1 -0.031303125 -0.00261666666667 0.004134375 0.574841
294 1 -0.031303125 -0.00261666666667 0.005315625 0.504268
295 1 -0.031303125 -0.00261666666667 0.006496875 0.559172
296 1 -0.031303125 -0.00261666666667 0.007678125 0.487459
297 1 -0.031303125 -0.00261666666667 0.008859375 0.534271
298 1 -0.031303125 -0.00261666666667 0.010040625 0.461132
299 1 -0.031303125 -0.00261666666667 0.011221875 0.499576
300 1 -0.031303125 -0.00261666666667 0.012403125 0.42496
301 1 -0.031303125 -0.00261666666667 0.013584375 0.457318
302 1 -0.031303125 -0.00261666666667 0.014765625 0.379961
303 1 -0.031303125 -0.00261666666667 0.015946875 0.410835
304 1 -0.031303125 -0.00261666666667 0.017128125 0.334304
305 1 -0.031303125 -0.00261666666667 0.018309375 0.369815
306 1 -0.031303125 -0.00261666666667 0.019490625 0.295535
307 1 -0.031303125 -0.00125 -0.019490625 0.263088
308 1 -0.031303125 -0.00125 -0.018309375 0.202243
309 1 -0.031303125 -0.00125 -0.017128125 0.308761
310 1 -0.031303125 -0.00125 -0.015946875 0.245567
311 1 -0.031303125 -0.00125 -0.014765625 0.361743
312 1 -0.031303125 -0.00125 -0.013584375 0.294674
313 1 -0.031303125 -0.00125 -0.012403125 0.415396
314 1 -0.031303125 -0.00125 -0.011221875 0.34543
315 1 -0.031303125 -0.00125 -0.010040625 0.461229
316 1 -0.031303125 -0.00125 -0.008859375 0.391898
317 1 -0.031303125 -0.00125 -0.007678125 0.498044
318 1 -0.031303125 -0.00125 -0.006496875 0.434348
319 1 -0.031303125 -0.00125 -0.005315625 0.529727
320 1 -0.031303125 -0.00125 -0.004134375 0.465674
321 1 -0.031303125 -0.00125 -0.002953125 0.553032
322 1 -0.031303125 -0.00125 -0.001771875 0.490216
323 1 -0.031303125 -0.00125 -0.000590625 0.57063
324 1 -0.031303125 -0.00125 0.000590625 0.50519
325 1 -0.031303125 -0.00125 0.001771875 0.578736
326 1 -0.031303125 -0.00125 0.002953125 0.511552
327 1 -0.031303125 -0.00125 0.004134375 0.574841
328 1 -0.031303125 -0.00125 0.005315625 0.504268
329 1 -0.031303125 -0.00125 0.006496875 0.559172
330 1 -0.031303125 -0.00125 0.007678125 0.487459
331 1 -0.031303125 -0.00125 0.008859375 0.534271
332 1 -0.031303125 -0.00125 0.010040625 0.461132
333 1 -0.031303125 -0.00125 0.011221875 0.499576
334 1 -0.031303125 -0.00125 0.012403125 0.42496
335 1 -0.031303125 -0.00125 0.013584375 0.457318
336 1 -0.031303125 -0.00125 0.014765625 0.379961
337 1 -0.031303125 -0.00125 0.015946875 0.410835
338 1 -0.031303125 -0.00125 0.017128125 0.334304
339 1 -0.031303125 -0.00125 0.018309375 0.369815
340 1 -0.031303125 -0.00125 0.019490625 0.295535
341 1 -0.031303125 0.000116666666667 -0.019490625 0.263088
342 1 -0.031303125 0.000116666666667 -0.018309375 0.202243
343 1 -0.031303125 0.000116666666667 -0.017128125 0.308761
344 1 -0.031303125 0.000116666666667 -0.015946875 0.245567
345 1 -0.031303125 0.000116666666667 -0.014765625 0.361743
346 1 -0.031303125 0.000116666666667 -0.013584375 0.294674
347 1 -0.031303125 0.000116666666667 -0.012403125 0.415396
348 1 -0.031303125 0.000116666666667 -0.011221875 0.34543
349 1 -0.031303125 0.000116666666667 -0.010040625 0.461229
350 1 -0.031303125 0.000116666666667 -0.008859375 0.391898
351 1 -0.031303125 0.000116666666667 -0.007678125 0.498044
352 1 -0.031303125 0.000116666666667 -0.006496875 0.434348
353 1 -0.031303125 0.000116666666667 -0.005315625 0.529727
354 1 -0.031303125 0.000116666666667 -0.004134375 0.465674
355 1 -0.031303125 0.000116666666667 -0.002953125 0.553032
356 1 -0.031303125 0.000116666666667 -0.001771875 0.490216
357 1 -0.031303125 0.000116666666667 -0.000590625 0.57063
358 1 -0.031303125 0.000116666666667 0.000590625 0.50519
359 1 -0.031303125 0.000116666666667 0.001771875 0.578736
360 1 -0.031303125 0.000116666666667 0.002953125 0.511552
361 1 -0.031303125 0.000116666666667 0.004134375 0.574841
362 1 -0.031303125 0.000116666666667 0.005315625 0.504268
363 1 -0.031303125 0.000116666666667 0.006496875 0.559172
364 1 -0.031303125 0.000116666666667 0.007678125 0.487459
365 1 -0.031303125 0.000116666666667 0.008859375 0.534271
366 1 -0.031303125 0.000116666666667 0.010040625 0.461132
367 1 -0.031303125 0.000116666666667 0.011221875 0.499576
368 1 -0.031303125 0.000116666666667 0.012403125 0.42496
369 1 -0.031303125 0.000116666666667 0.013584375 0.457318
370 1 -0.031303125 0.000116666666667 0.014765625 0.379961
371 1 -0.031303125 0.000116666666667 0.015946875 0.410835
372 1 -0.031303125 0.000116666666667 0.017128125 0.334304
373 1 -0.031303125 0.000116666666667 0.018309375 0.369815
374 1 -0.031303125 0.000116666666667 0.019490625 0.295535
375 1 -0.030121875 -0.00261666666667 -0.020671875 0.124197
376 1 -0.030121875 -0.00261666666667 -0.019490625 0.218659
377 1 -0.030121875 -0.00261666666667 -0.018309375 0.158103
378 1 -0.030121875 -0.00261666666667 -0.017128125 0.259455
379 1 -0.030121875 -0.00261666666667 -0.015946875 0.209979
380 1 -0.030121875 -0.00261666666667 -0.014765625 0.30901
381 1 -0.030121875 -0.00261666666667 -0.013584375 0.275769
382 1 -0.030121875 -0.00261666666667 -0.012403125 0.361222
383 1 -0.030121875 -0.00261666666667 -0.011221875 0.345284
384 1 -0.030121875 -0.00261666666667 -0.010040625 0.403769
385 1 -0.030121875 -0.00261666666667 -0.008859375 0.407517
386 1 -0.030121875 -0.00261666666667 -0.007678125 0.440207
387 1 -0.030121875 -0.00261666666667 -0.006496875 0.461421
388 1 -0.030121875 -0.00261666666667 -0.005315625 0.46809
389 1 -0.030121875 -0.00261666666667 -0.004134375 0.508642
390 1 -0.030121875 -0.00261666666667 -0.002953125 0.49002
391 1 -0.030121875 -0.00261666666667 -0.001771875 0.542863
392 1 -0.030121875 -0.00261666666667 -0.000590625 0.505064
393 1 -0.030121875 -0.00261666666667 0.000590625 0.566386
394 1 -0.030121875 -0.00261666666667 0.001771875 0.513792
395 1 -0.030121875 -0.00261666666667 0.002953125 0.575556
396 1 -0.030121875 -0.00261666666667 0.004134375 0.504206
397 1 -0.030121875 -0.00261666666667 0.005315625 0.570811
398 1 -0.030121875 -0.00261666666667 0.006496875 0.484772
399 1 -0.030121875 -0.00261666666667 0.007678125 0.548928
400 1 -0.030121875 -0.00261666666667 0.008859375 0.452997
401 1 -0.030121875 -0.00261666666667 0.010040625 0.513859
402 1 -0.030121875 -0.00261666666667 0.011221875 0.417368
403 1 -0.030121875 -0.00261666666667 0.012403125 0.467374
404 1 -0.030121875 -0.00261666666667 0.013584375 0.372519
405 1 -0.030121875 -0.00261666666667 0.014765625 0.408297
406 1 -0.030121875 -0.00261666666667 0.015946875 0.326264
407 1 -0.030121875 -0.00261666666667 0.017128125 0.344555
408 1 -0.030121875 -0.00261666666667 0.018309375 0.291005
409 1 -0.030121875 -0.00261666666667 0.019490625 0.285454
410 1 -0.030121875 -0.00261666666667 0.020671875 0.263364
411 1 -0.030121875 -0.00125 -0.020671875 0.124197
412 1 -0.030121875 -0.00125 -0.019490625 0.218659
413 1 -0.030121875 -0.00125 -0.018309375 0.158103
414 1 -0.030121875 -0.00125 -0.017128125 0.259455
415 1 -0.030121875 -0.00125 -0.015946875 0.209979
416 1 -0.030121875 -0.00125 -0.014765625 0.30901
417 1 -0.030121875 -0.00125 -0.013584375 0.275769
418 1 -0.030121875 -0.00125 -0.012403125 0.361222
419 1 -0.030121875 -0.00125 -0.011221875 0.345284
420 1 -0.030121875 -0.00125 -0.010040625 0.403769
421 1 -0.030121875 -0.00125 -0.008859375 0.407517
422 1 -0.030121875 -0.00125 -0.007678125 0.440207
423 1 -0.030121875 -0.00125 -0.006496875 0.461421
424 1 -0.030121875 -0.00125 -0.005315625 0.46809
425 1 -0.030121875 -0.00125 -0.004134375 0.508642
426 1 -0.030121875 -0.00125 -0.002953125 0.49002
427 1 -0.030121875 -0.00125 -0.001771875 0.542863
428 1 -0.030121875 -0.00125 -0.000590625 0.505064
429 1 -0.030121875 -0.00125 0.000590625 0.566386
430 1 -0.030121875 -0.00125 0.001771875 0.513792
431 1 -0.030121875 -0.00125 0.002953125 0.575556
432 1 -0.030121875 -0.00125 0.004134375 0.504206
433 1 -0.030121875 -0.00125 0.005315625 0.570811
434 1 -0.030121875 -0.00125 0.006496875 0.484772
435 1 -0.030121875 -0.00125 0.007678125 0.548928
436 1 -0.030121875 -0.00125 0.008859375 0.452997
437 1 -0.030121875 -0.00125 0.010040625 0.513859
438 1 -0.030121875 -0.00125 0.011221875 0.417368
439 1 -0.030121875 -0.00125 0.012403125 0.467374
440 1 -0.030121875 -0.00125 0.013584375 0.372519
441 1 -0.030121875 -0.00125 0.014765625 0.408297
442 1 -0.030121875 -0.00125 0.015946875 0.326264
443 1 -0.030121875 -0.00125 0.017128125 0.344555
444 1 -0.030121875 -0.00125 0.018309375 0.291005
445 1 -0.030121875 -0.00125 0.019490625 0.285454
446 1 -0.030121875 -0.00125 0.020671875 0.263364
447 1 -0.030121875 0.000116666666667 -0.020671875 0.124197
448 1 -0.030121875 0.000116666666667 -0.019490625 0.218659
449 1 -0.030121875 0.000116666666667 -0.018309375 0.158103
450 1 -0.030121875 0.000116666666667 -0.017128125 0.259455
451 1 -0.030121875 0.000116666666667 -0.015946875 0.209979
452 1 -0.030121875 0.000116666666667 -0.014765625 0.30901
453 1 -0.030121875 0.000116666666667 -0.013584375 0.275769
454 1 -0.030121875 0.000116666666667 -0.012403125 0.361222
455 1 -0.030121875 0.000116666666667 -0.011221875 0.345284
456 1 -0.030121875 0.000116666666667 -0.010040625 0.403769
457 1 -0.030121875 0.000116666666667 -0.008859375 0.407517
458 1 -0.030121875 0.000116666666667 -0.007678125 0.440207
459 1 -0.030121875 0.000116666666667 -0.006496875 0.461421
460 1 -0.030121875 0.000116666666667 -0.005315625 0.46809
461 1 -0.030121875 0.000116666666667 -0.004134375 0.508642
462 1 -0.030121875 0.000116666666667 -0.002953125 0.49002
463 1 -0.030121875 0.000116666666667 -0.001771875 0.542863
464 1 -0.030121875 0.000116666666667 -0.000590625 0.505064
465 1 -0.030121875 0.000116666666667 0.000590625 0.566386
466 1 -0.030121875 0.000116666666667 0.001771875 0.513792
467 1 -0.030121875 0.000116666666667 0.002953125 0.575556
468 1 -0.030121875 0.000116666666667 0.004134375 0.504206
469 1 -0.030121875 0.000116666666667 0.005315625 0.570811
470 1 -0.030121875 0.000116666666667 0.006496875 0.484772
471 1 -0.030121875 0.000116666666667 0.007678125 0.548928
472 1 -0.030121875 0.000116666666667 0.008859375 0.452997
473 1 -0.030121875 0.000116666666667 0.010040625 0.513859
474 1 -0.030121875 0.000116666666667 0.011221875 0.417368
475 1 -0.030121875 0.000116666666667 0.012403125 0.467374
476 1 -0.030121875 0.000116666666667 0.013584375 0.372519
477 1 -0.030121875 0.000116666666667 0.014765625 0.408297
478 1 -0.030121875 0.000116666666667 0.015946875 0.326264
479 1 -0.030121875 0.000116666666667 0.017128125 0.344555
480 1 -0.030121875 0.000116666666667 0.018309375 0.291005
481 1 -0.030121875 0.000116666666667 0.019490625 0.285454
482 1 -0.030121875 0.000116666666667 0.020671875 0.263364
483 1 -0.028940625 -0.00261666666667 -0.021853125 0.277351
484 1 -0.028940625 -0.00261666666667 -0.020671875 0.218846
485 1 -0.028940625 -0.00261666666667 -0.019490625 0.327182
486 1 -0.028940625 -0.00261666666667 -0.018309375 0.269082
487 1 -0.028940625 -0.00261666666667 -0.017128125 0.388194
488 1 -0.028940625 -0.00261666666667 -0.015946875 0.329462
489 1 -0.028940625 -0.00261666666667 -0.014765625 0.45195
490 1 -0.028940625 -0.00261666666667 -0.013584375 0.392069
491 1 -0.028940625 -0.00261666666667 -0.012403125 0.508286
492 1 -0.028940625 -0.00261666666667 -0.011221875 0.45094
493 1 -0.028940625 -0.00261666666667 -0.010040625 0.55569
494 1 -0.028940625 -0.00261666666667 -0.008859375 0.497722
495 1 -0.028940625 -0.00261666666667 -0.007678125 0.59164
496 1 -0.028940625 -0.00261666666667 -0.006496875 0.533784
497 1 -0.028940625 -0.00261666666667 -0.005315625 0.620329
498 1 -0.028940625 -0.00261666666667 -0.004134375 0.558611
499 1 -0.028940625 -0.00261666666667 -0.002953125 0.638568
500 1 -0.028940625 -0.00261666666667 -0.001771875 0.577567
501 1 -0.028940625 -0.00261666666667 -0.000590625 0.651291
502 1 -0.028940625 -0.00261666666667 0.000590625 0.588384
503 1 -0.028940625 -0.00261666666667 0.001771875 0.654551
504 1 -0.028940625 -0.00261666666667 0.002953125 0.590964
505 1 -0.028940625 -0.00261666666667 0.004134375 0.646427
506 1 -0.028940625 -0.00261666666667 0.005315625 0.579687
507 1 -0.028940625 -0.00261666666667 0.006496875 0.626559
508 1 -0.028940625 -0.00261666666667 0.007678125 0.559036
509 1 -0.028940625 -0.00261666666667 0.008859375 0.598
510 1 -0.028940625 -0.00261666666667 0.010040625 0.528794
511 1 -0.028940625 -0.00261666666667 0.011221875 0.559791
512 1 -0.028940625 -0.00261666666667 0.012403125 0.491921
513 1 -0.028940625 -0.00261666666667 0.013584375 0.516969
514 1 -0.028940625 -0.00261666666667 0.014765625 0.449505
515 1 -0.028940625 -0.00261666666667 0.015946875 0.468714
516 1 -0.028940625 -0.00261666666667 0.017128125 0.400711
517 1 -0.028940625 -0.00261666666667 0.018309375 0.422189
518 1 -0.028940625 -0.00261666666667 0.019490625 0.357378
519 1 -0.028940625 -0.00261666666667 0.020671875 0.38521
520 1 -0.028940625 -0.00261666666667 0.021853125 0.323573
521 1 -0.028940625 -0.00125 -0.021853125 0.277351
522 1 -0.028940625 -0.00125 -0.020671875 0.218846
523 1 -0.028940625 -0.00125 -0.019490625 0.327182
524 1 -0.028940625 -0.00125 -0.018309375 0.269082
525 1 -0.028940625 -0.00125 -0.017128125 0.388194
526 1 -0.028940625 -0.00125 -0.015946875 0.329462
527 1 -0.028940625 -0.00125 -0.014765625 0.45195
528 1 -0.028940625 -0.00125 -0.013584375 0.392069
529 1 -0.028940625 -0.00125 -0.012403125 0.508286
530 1 -0.028940625 -0.00125 -0.011221875 0.45094
531 1 -0.028940625 -0.00125 -0.010040625 0.55569
532 1 -0.028940625 -0.00125 -0.008859375 0.497722
533 1 -0.028940625 -0.00125 -0.007678125 0.59164
534 1 -0.028940625 -0.00125 -0.006496875 0.533784
535 1 -0.028940625 -0.00125 -0.005315625 0.620329
536 1 -0.028940625 -0.00125 -0.004134375 0.558611
537 1 -0.028940625 -0.00125 -0.002953125 0.638568
538 1 -0.028940625 -0.00125 -0.001771875 0.577567