ITEM: TIMESTEP
0
ITEM: NUMBER OF ATOMS
9240
ITEM: BOX BOUNDS ss ss ss
-3.7007399999999996e-02 3.7007399999999996e-02
-2.0002499999999999e-03 2.5000000000000004e-07
-3.7007399999999996e-02 3.7007399999999996e-02
ITEM: ATOMS id type x y z c_1
0 1 -0.037209375 -0.00261666666667 -0.000590625 0.338521
1 1 -0.037209375 -0.00125 -0.000590625 0.338521
2 1 -0.037209375 0.000116666666667 -0.000590625 0.338521
3 1 -0.036028125 -0.00261666666667 -0.007678125 0.363491
4 1 -0.036028125 -0.00261666666667 -0.006496875 0.268859
5 1 -0.036028125 -0.00261666666667 -0.005315625 0.376752
6 1 -0.036028125 -0.00261666666667 -0.004134375 0.282343
7 1 -0.036028125 -0.00261666666667 -0.002953125 0.385339
8 1 -0.036028125 -0.00261666666667 -0.001771875 0.29249
9 1 -0.036028125 -0.00261666666667 -0.000590625 0.391512
10 1 -0.036028125 -0.00261666666667 0.000590625 0.295852
11 1 -0.036028125 -0.00261666666667 0.001771875 0.390137
12 1 -0.036028125 -0.00261666666667 0.002953125 0.290538
13 1 -0.036028125 -0.00261666666667 0.004134375 0.379788
14 1 -0.036028125 -0.00261666666667 0.005315625 0.274318
15 1 -0.036028125 -0.00261666666667 0.006496875 0.35902
16 1 -0.036028125 -0.00261666666667 0.007678125 0.250803
17 1 -0.036028125 -0.00125 -0.007678125 0.363491
18 1 -0.036028125 -0.00125 -0.006496875 0.268859
19 1 -0.036028125 -0.00125 -0.005315625 0.376752
20 1 -0.036028125 -0.00125 -0.004134375 0.282343
21 1 -0.036028125 -0.00125 -0.002953125 0.385339
22 1 -0.036028125 -0.00125 -0.001771875 0.29249
23 1 -0.036028125 -0.00125 -0.000590625 0.391512
24 1 -0.036028125 -0.00125 0.000590625 0.295852
25 1 -0.036028125 -0.00125 0.001771875 0.390137
26 1 -0.036028125 -0.00125 0.002953125 0.290538
27 1 -0.036028125 -0.00125 0.004134375 0.379788
28 1 -0.036028125 -0.00125 0.005315625 0.274318
29 1 -0.036028125 -0.00125 0.006496875 0.35902
30 1 -0.036028125 -0.00125 0.007678125 0.250803
31 1 -0.036028125 0.000116666666667 -0.007678125 0.363491
32 1 -0.036028125 0.000116666666667 -0.006496875 0.268859
33 1 -0.036028125 0.000116666666667 -0.005315625 0.376752
34 1 -0.036028125 0.000116666666667 -0.004134375 0.282343
35 1 -0.036028125 0.000116666666667 -0.002953125 0.385339
36 1 -0.036028125 0.000116666666667 -0.001771875 0.29249
37 1 -0.036028125 0.000116666666667 -0.000590625 0.391512
38 1 -0.036028125 0.000116666666667 0.000590625 0.295852
39 1 -0.036028125 0.000116666666667 0.001771875 0.390137
40 1 -0.036028125 0.000116666666667 0.002953125 0.290538
41 1 -0.036028125 0.000116666666667 0.004134375 0.379788
42 1 -0.036028125 0.000116666666667 0.005315625 0.274318
43 1 -0.036028125 0.000116666666667 0.006496875 0.35902
44 1 -0.036028125 0.000116666666667 0.007678125 0.250803
45 1 -0.034846875 -0.00261666666667 -0.011221875 0.220284
46 1 -0.034846875 -0.00261666666667 -0.010040625 0.255401
47 1 -0.034846875 -0.00261666666667 -0.008859375 0.247079
48 1 -0.034846875 -0.00261666666667 -0.007678125 0.272291
49 1 -0.034846875 -0.00261666666667 -0.006496875 0.269199
50 1 -0.034846875 -0.00261666666667 -0.005315625 0.283835
51 1 -0.034846875 -0.00261666666667 -0.004134375 0.28795
52 1 -0.034846875 -0.00261666666667 -0.002953125 0.29207
53 1 -0.034846875 -0.00261666666667 -0.001771875 0.30191
54 1 -0.034846875 -0.00261666666667 -0.000590625 0.29592
55 1 -0.034846875 -0.00261666666667 0.000590625 0.309815
56 1 -0.034846875 -0.00261666666667 0.001771875 0.294353
57 1 -0.034846875 -0.00261666666667 0.002953125 0.306232
58 1 -0.034846875 -0.00261666666667 0.004134375 0.280874
59 1 -0.034846875 -0.00261666666667 0.005315625 0.289424
60 1 -0.034846875 -0.00261666666667 0.006496875 0.259609
61 1 -0.034846875 -0.00261666666667 0.007678125 0.260571
62 1 -0.034846875 -0.00261666666667 0.008859375 0.231578
63 1 -0.034846875 -0.00261666666667 0.010040625 0.225035
64 1 -0.034846875 -0.00261666666667 0.011221875 0.203559
65 1 -0.034846875 -0.00125 -0.011221875 0.220284
66 1 -0.034846875 -0.00125 -0.010040625 0.255401
67 1 -0.034846875 -0.00125 -0.008859375 0.247079
68 1 -0.034846875 -0.00125 -0.007678125 0.272291
69 1 -0.034846875 -0.00125 -0.006496875 0.269199
70 1 -0.034846875 -0.00125 -0.005315625 0.283835
71 1 -0.034846875 -0.00125 -0.004134375 0.28795
72 1 -0.034846875 -0.00125 -0.002953125 0.29207
73 1 -0.034846875 -0.00125 -0.001771875 0.30191
74 1 -0.034846875 -0.00125 -0.000590625 0.29592
75 1 -0.034846875 -0.00125 0.000590625 0.309815
76 1 -0.034846875 -0.00125 0.001771875 0.294353
77 1 -0.034846875 -0.00125 0.002953125 0.306232
78 1 -0.034846875 -0.00125 0.004134375 0.280874
79 1 -0.034846875 -0.00125 0.005315625 0.289424
80 1 -0.034846875 -0.00125 0.006496875 0.259609
81 1 -0.034846875 -0.00125 0.007678125 0.260571
82 1 -0.034846875 -0.00125 0.008859375 0.231578
83 1 -0.034846875 -0.00125 0.010040625 0.225035
84 1 -0.034846875 -0.00125 0.011221875 0.203559
85 1 -0.034846875 0.000116666666667 -0.011221875 0.220284
86 1 -0.034846875 0.000116666666667 -0.010040625 0.255401
87 1 -0.034846875 0.000116666666667 -0.008859375 0.247079
88 1 -0.034846875 0.000116666666667 -0.007678125 0.272291
89 1 -0.034846875 0.000116666666667 -0.006496875 0.269199
90 1 -0.034846875 0.000116666666667 -0.005315625 0.283835
91 1 -0.034846875 0.000116666666667 -0.004134375 0.28795
92 1 -0.034846875 0.000116666666667 -0.002953125 0.29207
93 1 -0.034846875 0.000116666666667 -0.001771875 0.30191
94 1 -0.034846875 0.000116666666667 -0.000590625 0.29592
95 1 -0.034846875 0.000116666666667 0.000590625 0.309815
96 1 -0.034846875 0.000116666666667 0.001771875 0.294353
97 1 -0.034846875 0.000116666666667 0.002953125 0.306232
98 1 -0.034846875 0.000116666666667 0.004134375 0.280874
99 1 -0.034846875 0.000116666666667 0.005315625 0.289424
100 1 -0.034846875 0.000116666666667 0.006496875 0.259609
101 1 -0.034846875 0.000116666666667 0.007678125 0.260571
102 1 -0.034846875 0.000116666666667 0.008859375 0.231578
103 1 -0.034846875 0.000116666666667 0.010040625 0.225035
104 1 -0.034846875 0.000116666666667 0.011221875 0.203559
105 1 -0.033665625 -0.00261666666667 -0.013584375 0.232768
106 1 -0.033665625 -0.00261666666667 -0.012403125 0.354039
107 1 -0.033665625 -0.00261666666667 -0.011221875 0.278535
108 1 -0.033665625 -0.00261666666667 -0.010040625 0.391507
109 1 -0.033665625 -0.00261666666667 -0.008859375 0.318455
110 1 -0.033665625 -0.00261666666667 -0.007678125 0.418932
111 1 -0.033665625 -0.00261666666667 -0.006496875 0.350373
112 1 -0.033665625 -0.00261666666667 -0.005315625 0.440074
113 1 -0.033665625 -0.00261666666667 -0.004134375 0.372573
114 1 -0.033665625 -0.00261666666667 -0.002953125 0.453587
115 1 -0.033665625 -0.00261666666667 -0.001771875 0.389198
116 1 -0.033665625 -0.00261666666667 -0.000590625 0.463277
117 1 -0.033665625 -0.00261666666667 0.000590625 0.395929
118 1 -0.033665625 -0.00261666666667 0.001771875 0.462645
119 1 -0.033665625 -0.00261666666667 0.002953125 0.389902
120 1 -0.033665625 -0.00261666666667 0.004134375 0.449602
121 1 -0.033665625 -0.00261666666667 0.005315625 0.365041
122 1 -0.033665625 -0.00261666666667 0.006496875 0.421057
123 1 -0.033665625 -0.00261666666667 0.007678125 0.325402
124 1 -0.033665625 -0.00261666666667 0.008859375 0.382208
125 1 -0.033665625 -0.00261666666667 0.010040625 0.275109
126 1 -0.033665625 -0.00261666666667 0.011221875 0.334794
127 1 -0.033665625 -0.00261666666667 0.012403125 0.22307
128 1 -0.033665625 -0.00261666666667 0.013584375 0.287493
129 1 -0.033665625 -0.00125 -0.013584375 0.232768
130 1 -0.033665625 -0.00125 -0.012403125 0.354039
131 1 -0.033665625 -0.00125 -0.011221875 0.278535
132 1 -0.033665625 -0.00125 -0.010040625 0.391507
133 1 -0.033665625 -0.00125 -0.008859375 0.318455
134 1 -0.033665625 -0.00125 -0.007678125 0.418932
135 1 -0.033665625 -0.00125 -0.006496875 0.350373
136 1 -0.033665625 -0.00125 -0.005315625 0.440074
137 1 -0.033665625 -0.00125 -0.004134375 0.372573
138 1 -0.033665625 -0.00125 -0.002953125 0.453587
139 1 -0.033665625 -0.00125 -0.001771875 0.389198
140 1 -0.033665625 -0.00125 -0.000590625 0.463277
141 1 -0.033665625 -0.00125 0.000590625 0.395929
142 1 -0.033665625 -0.00125 0.001771875 0.462645
143 1 -0.033665625 -0.00125 0.002953125 0.389902
144 1 -0.033665625 -0.00125 0.004134375 0.449602
145 1 -0.033665625 -0.00125 0.005315625 0.365041
146 1 -0.033665625 -0.00125 0.006496875 0.421057
147 1 -0.033665625 -0.00125 0.007678125 0.325402
148 1 -0.033665625 -0.00125 0.008859375 0.382208
149 1 -0.033665625 -0.00125 0.010040625 0.275109
150 1 -0.033665625 -0.00125 0.011221875 0.334794
151 1 -0.033665625 -0.00125 0.012403125 0.22307
152 1 -0.033665625 -0.00125 0.013584375 0.287493
153 1 -0.033665625 0.000116666666667 -0.013584375 0.232768
154 1 -0.033665625 0.000116666666667 -0.012403125 0.354039
155 1 -0.033665625 0.000116666666667 -0.011221875 0.278535
156 1 -0.033665625 0.000116666666667 -0.010040625 0.391507
157 1 -0.033665625 0.000116666666667 -0.008859375 0.318455
158 1 -0.033665625 0.000116666666667 -0.007678125 0.418932
159 1 -0.033665625 0.000116666666667 -0.006496875 0.350373
160 1 -0.033665625 0.000116666666667 -0.005315625 0.440074
161 1 -0.033665625 0.000116666666667 -0.004134375 0.372573
162 1 -0.033665625 0.000116666666667 -0.002953125 0.453587
163 1 -0.033665625 0.000116666666667 -0.001771875 0.389198
164 1 -0.033665625 0.000116666666667 -0.000590625 0.463277
165 1 -0.033665625 0.000116666666667 0.000590625 0.395929
166 1 -0.033665625 0.000116666666667 0.001771875 0.462645
167 1 -0.033665625 0.000116666666667 0.002953125 0.389902
168 1 -0.033665625 0.000116666666667 0.004134375 0.449602
169 1 -0.033665625 0.000116666666667 0.005315625 0.365041
170 1 -0.033665625 0.000116666666667 0.006496875 0.421057
171 1 -0.033665625 0.000116666666667 0.007678125 0.325402
172 1 -0.033665625 0.000116666666667 0.008859375 0.382208
173 1 -0.033665625 0.000116666666667 0.010040625 0.275109
174 1 -0.033665625 0.000116666666667 0.011221875 0.334794
175 1 -0.033665625 0.000116666666667 0.012403125 0.22307
176 1 -0.033665625 0.000116666666667 0.013584375 0.287493
177 1 -0.032484375 -0.00261666666667 -0.018309375 0.143782
178 1 -0.032484375 -0.00261666666667 -0.017128125 0.206865
179 1 -0.032484375 -0.00261666666667 -0.015946875 0.189754
180 1 -0.032484375 -0.00261666666667 -0.014765625 0.251844
181 1 -0.032484375 -0.00261666666667 -0.013584375 0.245391
182 1 -0.032484375 -0.00261666666667 -0.012403125 0.297378
183 1 -0.032484375 -0.00261666666667 -0.011221875 0.298999
184 1 -0.032484375 -0.00261666666667 -0.010040625 0.333291
185 1 -0.032484375 -0.00261666666667 -0.008859375 0.345383
186 1 -0.032484375 -0.00261666666667 -0.007678125 0.360987
187 1 -0.032484375 -0.00261666666667 -0.006496875 0.378156
188 1 -0.032484375 -0.00261666666667 -0.005315625 0.378862
189 1 -0.032484375 -0.00261666666667 -0.004134375 0.401507
190 1 -0.032484375 -0.00261666666667 -0.002953125 0.390747
191 1 -0.032484375 -0.00261666666667 -0.001771875 0.417938
192 1 -0.032484375 -0.00261666666667 -0.000590625 0.396676
193 1 -0.032484375 -0.00261666666667 0.000590625 0.428092
194 1 -0.032484375 -0.00261666666667 0.001771875 0.395134
195 1 -0.032484375 -0.00261666666667 0.002953125 0.426075
196 1 -0.032484375 -0.00261666666667 0.004134375 0.376877
197 1 -0.032484375 -0.00261666666667 0.005315625 0.409919
198 1 -0.032484375 -0.00261666666667 0.006496875 0.345737
199 1 -0.032484375 -0.00261666666667 0.007678125 0.373161
200 1 -0.032484375 -0.00261666666667 0.008859375 0.301669
201 1 -0.032484375 -0.00261666666667 0.010040625 0.317645
202 1 -0.032484375 -0.00261666666667 0.011221875 0.254229
203 1 -0.032484375 -0.00261666666667 0.012403125 0.254056
204 1 -0.032484375 -0.00261666666667 0.013584375 0.207929
205 1 -0.032484375 -0.00261666666667 0.014765625 0.194271
206 1 -0.032484375 -0.00261666666667 0.015946875 0.167534
207 1 -0.032484375 -0.00261666666667 0.017128125 0.147772
208 1 -0.032484375 -0.00261666666667 0.018309375 0.138214
209 1 -0.032484375 -0.00125 -0.018309375 0.143782
210 1 -0.032484375 -0.00125 -0.017128125 0.206865
211 1 -0.032484375 -0.00125 -0.015946875 0.189754
212 1 -0.032484375 -0.00125 -0.014765625 0.251844
213 1 -0.032484375 -0.00125 -0.013584375 0.245391
214 1 -0.032484375 -0.00125 -0.012403125 0.297378
215 1 -0.032484375 -0.00125 -0.011221875 0.298999
216 1 -0.032484375 -0.00125 -0.010040625 0.333291
217 1 -0.032484375 -0.00125 -0.008859375 0.345383
218 1 -0.032484375 -0.00125 -0.007678125 0.360987
219 1 -0.032484375 -0.00125 -0.006496875 0.378156
220 1 -0.032484375 -0.00125 -0.005315625 0.378862
221 1 -0.032484375 -0.00125 -0.004134375 0.401507
222 1 -0.032484375 -0.00125 -0.002953125 0.390747
223 1 -0.032484375 -0.00125 -0.001771875 0.417938
224 1 -0.032484375 -0.00125 -0.000590625 0.396676
225 1 -0.032484375 -0.00125 0.000590625 0.428092
226 1 -0.032484375 -0.00125 0.001771875 0.395134
227 1 -0.032484375 -0.00125 0.002953125 0.426075
228 1 -0.032484375 -0.00125 0.004134375 0.376877
229 1 -0.032484375 -0.00125 0.005315625 0.409919
230 1 -0.032484375 -0.00125 0.006496875 0.345737
231 1 -0.032484375 -0.00125 0.007678125 0.373161
232 1 -0.032484375 -0.00125 0.008859375 0.301669
233 1 -0.032484375 -0.00125 0.010040625 0.317645
234 1 -0.032484375 -0.00125 0.011221875 0.254229
235 1 -0.032484375 -0.00125 0.012403125 0.254056
236 1 -0.032484375 -0.00125 0.013584375 0.207929
237 1 -0.032484375 -0.00125 0.014765625 0.194271
238 1 -0.032484375 -0.00125 0.015946875 0.167534
239 1 -0.032484375 -0.00125 0.017128125 0.147772
240 1 -0.032484375 -0.00125 0.018309375 0.138214
241 1 -0.032484375 0.000116666666667 -0.018309375 0.143782
242 1 -0.032484375 0.000116666666667 -0.017128125 0.206865
243 1 -0.032484375 0.000116666666667 -0.015946875 0.189754
244 1 -0.032484375 0.000116666666667 -0.014765625 0.251844
245 1 -0.032484375 0.000116666666667 -0.013584375 0.245391
246 1 -0.032484375 0.000116666666667 -0.012403125 0.297378
247 1 -0.032484375 0.000116666666667 -0.011221875 0.298999
248 1 -0.032484375 0.000116666666667 -0.010040625 0.333291
249 1 -0.032484375 0.000116666666667 -0.008859375 0.345383
250 1 -0.032484375 0.000116666666667 -0.007678125 0.360987
251 1 -0.032484375 0.000116666666667 -0.006496875 0.378156
252 1 -0.032484375 0.000116666666667 -0.005315625 0.378862
253 1 -0.032484375 0.000116666666667 -0.004134375 0.401507
254 1 -0.032484375 0.000116666666667 -0.002953125 0.390747
255 1 -0.032484375 0.000116666666667 -0.001771875 0.417938
256 1 -0.032484375 0.000116666666667 -0.000590625 0.396676
257 1 -0.032484375 0.000116666666667 0.000590625 0.428092
258 1 -0.032484375 0.000116666666667 0.001771875 0.395134
259 1 -0.032484375 0.000116666666667 0.002953125 0.426075
260 1 -0.032484375 0.000116666666667 0.004134375 0.376877
261 1 -0.032484375 0.000116666666667 0.005315625 0.409919
262 1 -0.032484375 0.000116666666667 0.006496875 0.345737
263 1 -0.032484375 0.000116666666667 0.007678125 0.373161
264 1 -0.032484375 0.000116666666667 0.008859375 0.301669
265 1 -0.032484375 0.000116666666667 0.010040625 0.317645
266 1 -0.032484375 0.000116666666667 0.011221875 0.254229
267 1 -0.032484375 0.000116666666667 0.012403125 0.254056
268 1 -0.032484375 0.000116666666667 0.013584375 0.207929
269 1 -0.032484375 0.000116666666667 0.014765625 0.194271
270 1 -0.032484375 0.000116666666667 0.015946875 0.167534
271 1 -0.032484375 0.000116666666667 0.017128125 0.147772
272 1 -0.032484375 0.000116666666667 0.018309375 0.138214
273 1 -0.031303125 -0.00261666666667 -0.019490625 0.272808
274 1 -0.031303125 -0.00261666666667 -0.018309375 0.220424
275 1 -0.031303125 -0.00261666666667 -0.017128125 0.332702
276 1 -0.031303125 -0.00261666666667 -0.015946875 0.294099
277 1 -0.031303125 -0.00261666666667 -0.014765625 0.395876
278 1 -0.031303125 -0.00261666666667 -0.013584375 0.366655
279 1 -0.031303125 -0.00261666666667 -0.012403125 0.45008
280 1 -0.031303125 -0.00261666666667 -0.011221875 0.429551
281 1 -0.031303125 -0.00261666666667 -0.010040625 0.490057
282 1 -0.031303125 -0.00261666666667 -0.008859375 0.474362
283 1 -0.031303125 -0.00261666666667 -0.007678125 0.517686
284 1 -0.031303125 -0.00261666666667 -0.006496875 0.50376
285 1 -0.031303125 -0.00261666666667 -0.005315625 0.536818
286 1 -0.031303125 -0.00261666666667 -0.004134375 0.520949
287 1 -0.031303125 -0.00261666666667 -0.002953125 0.548496
288 1 -0.031303125 -0.00261666666667 -0.001771875 0.534288
289 1 -0.031303125 -0.00261666666667 -0.000590625 0.557402
290 1 -0.031303125 -0.00261666666667 0.000590625 0.541143
291 1 -0.031303125 -0.00261666666667 0.001771875 0.558338
292 1 -0.031303125 -0.00261666666667 0.002953125 0.54128
293 1 -0.031303125 -0.00261666666667 0.004134375 0.548839
294 1 -0.031303125 -0.00261666666667 0.005315625 0.526996
295 1 -0.031303125 -0.00261666666667 0.006496875 0.525137
296 1 -0.031303125 -0.00261666666667 0.007678125 0.491511
297 1 -0.031303125 -0.00261666666667 0.008859375 0.486362
298 1 -0.031303125 -0.00261666666667 0.010040625 0.430703
299 1 -0.031303125 -0.00261666666667 0.011221875 0.432505
300 1 -0.031303125 -0.00261666666667 0.012403125 0.35518
301 1 -0.031303125 -0.00261666666667 0.013584375 0.37
302 1 -0.031303125 -0.00261666666667 0.014765625 0.276894
303 1 -0.031303125 -0.00261666666667 0.015946875 0.307416
304 1 -0.031303125 -0.00261666666667 0.017128125 0.211087
305 1 -0.031303125 -0.00261666666667 0.018309375 0.2565
306 1 -0.031303125 -0.00261666666667 0.019490625 0.164775
307 1 -0.031303125 -0.00125 -0.019490625 0.272808
308 1 -0.031303125 -0.00125 -0.018309375 0.220424
309 1 -0.031303125 -0.00125 -0.017128125 0.332702
310 1 -0.031303125 -0.00125 -0.015946875 0.294099
311 1 -0.031303125 -0.00125 -0.014765625 0.395876
312 1 -0.031303125 -0.00125 -0.013584375 0.366655
313 1 -0.031303125 -0.00125 -0.012403125 0.45008
314 1 -0.031303125 -0.00125 -0.011221875 0.429551
315 1 -0.031303125 -0.00125 -0.010040625 0.490057
316 1 -0.031303125 -0.00125 -0.008859375 0.474362
317 1 -0.031303125 -0.00125 -0.007678125 0.517686
318 1 -0.031303125 -0.00125 -0.006496875 0.50376
319 1 -0.031303125 -0.00125 -0.005315625 0.536818
320 1 -0.031303125 -0.00125 -0.004134375 0.520949
321 1 -0.031303125 -0.00125 -0.002953125 0.548496
322 1 -0.031303125 -0.00125 -0.001771875 0.534288
323 1 -0.031303125 -0.00125 -0.000590625 0.557402
324 1 -0.031303125 -0.00125 0.000590625 0.541143
325 1 -0.031303125 -0.00125 0.001771875 0.558338
326 1 -0.031303125 -0.00125 0.002953125 0.54128
327 1 -0.031303125 -0.00125 0.004134375 0.548839
328 1 -0.031303125 -0.00125 0.005315625 0.526996
329 1 -0.031303125 -0.00125 0.006496875 0.525137
330 1 -0.031303125 -0.00125 0.007678125 0.491511
331 1 -0.031303125 -0.00125 0.008859375 0.486362
332 1 -0.031303125 -0.00125 0.010040625 0.430703
333 1 -0.031303125 -0.00125 0.011221875 0.432505
334 1 -0.031303125 -0.00125 0.012403125 0.35518
335 1 -0.031303125 -0.00125 0.013584375 0.37
336 1 -0.031303125 -0.00125 0.014765625 0.276894
337 1 -0.031303125 -0.00125 0.015946875 0.307416
338 1 -0.031303125 -0.00125 0.017128125 0.211087
339 1 -0.031303125 -0.00125 0.018309375 0.2565
340 1 -0.031303125 -0.00125 0.019490625 0.164775
341 1 -0.031303125 0.000116666666667 -0.019490625 0.272808
342 1 -0.031303125 0.000116666666667 -0.018309375 0.220424
343 1 -0.031303125 0.000116666666667 -0.017128125 0.332702
344 1 -0.031303125 0.000116666666667 -0.015946875 0.294099
345 1 -0.031303125 0.000116666666667 -0.014765625 0.395876
346 1 -0.031303125 0.000116666666667 -0.013584375 0.366655
347 1 -0.031303125 0.000116666666667 -0.012403125 0.45008
348 1 -0.031303125 0.000116666666667 -0.011221875 0.429551
349 1 -0.031303125 0.000116666666667 -0.010040625 0.490057
350 1 -0.031303125 0.000116666666667 -0.008859375 0.474362
351 1 -0.031303125 0.000116666666667 -0.007678125 0.517686
352 1 -0.031303125 0.000116666666667 -0.006496875 0.50376
353 1 -0.031303125 0.000116666666667 -0.005315625 0.536818
354 1 -0.031303125 0.000116666666667 -0.004134375 0.520949
355 1 -0.031303125 0.000116666666667 -0.002953125 0.548496
356 1 -0.031303125 0.000116666666667 -0.001771875 0.534288
357 1 -0.031303125 0.000116666666667 -0.000590625 0.557402
358 1 -0.031303125 0.000116666666667 0.000590625 0.541143
359 1 -0.031303125 0.000116666666667 0.001771875 0.558338
360 1 -0.031303125 0.000116666666667 0.002953125 0.54128
361 1 -0.031303125 0.000116666666667 0.004134375 0.548839
362 1 -0.031303125 0.000116666666667 0.005315625 0.526996
363 1 -0.031303125 0.000116666666667 0.006496875 0.525137
364 1 -0.031303125 0.000116666666667 0.007678125 0.491511
365 1 -0.031303125 0.000116666666667 0.008859375 0.486362
366 1 -0.031303125 0.000116666666667 0.010040625 0.430703
367 1 -0.031303125 0.000116666666667 0.011221875 0.432505
368 1 -0.031303125 0.000116666666667 0.012403125 0.35518
369 1 -0.031303125 0.000116666666667 0.013584375 0.37
370 1 -0.031303125 0.000116666666667 0.014765625 0.276894
371 1 -0.031303125 0.000116666666667 0.015946875 0.307416
372 1 -0.031303125 0.000116666666667 0.017128125 0.211087
373 1 -0.031303125 0.000116666666667 0.018309375 0.2565
374 1 -0.031303125 0.000116666666667 0.019490625 0.164775
375 1 -0.030121875 -0.00261666666667 -0.020671875 0.168841
376 1 -0.030121875 -0.00261666666667 -0.019490625 0.237251
377 1 -0.030121875 -0.00261666666667 -0.018309375 0.232403
378 1 -0.030121875 -0.00261666666667 -0.017128125 0.303291
379 1 -0.030121875 -0.00261666666667 -0.015946875 0.307746
380 1 -0.030121875 -0.00261666666667 -0.014765625 0.369121
381 1 -0.030121875 -0.00261666666667 -0.013584375 0.380298
382 1 -0.030121875 -0.00261666666667 -0.012403125 0.423944
383 1 -0.030121875 -0.00261666666667 -0.011221875 0.437151
384 1 -0.030121875 -0.00261666666667 -0.010040625 0.4593
385 1 -0.030121875 -0.00261666666667 -0.008859375 0.479715
386 1 -0.030121875 -0.00261666666667 -0.007678125 0.48413
387 1 -0.030121875 -0.00261666666667 -0.006496875 0.50814
388 1 -0.030121875 -0.00261666666667 -0.005315625 0.496811
389 1 -0.030121875 -0.00261666666667 -0.004134375 0.528896
390 1 -0.030121875 -0.00261666666667 -0.002953125 0.505186
391 1 -0.030121875 -0.00261666666667 -0.001771875 0.544166
392 1 -0.030121875 -0.00261666666667 -0.000590625 0.508803
393 1 -0.030121875 -0.00261666666667 0.000590625 0.555537
394 1 -0.030121875 -0.00261666666667 0.001771875 0.508379
395 1 -0.030121875 -0.00261666666667 0.002953125 0.558103
396 1 -0.030121875 -0.00261666666667 0.004134375 0.493919
397 1 -0.030121875 -0.00261666666667 0.005315625 0.549877
398 1 -0.030121875 -0.00261666666667 0.006496875 0.470446
399 1 -0.030121875 -0.00261666666667 0.007678125 0.521374
400 1 -0.030121875 -0.00261666666667 0.008859375 0.427673
401 1 -0.030121875 -0.00261666666667 0.010040625 0.471705
402 1 -0.030121875 -0.00261666666667 0.011221875 0.374298
403 1 -0.030121875 -0.00261666666667 0.012403125 0.403634
404 1 -0.030121875 -0.00261666666667 0.013584375 0.311515
405 1 -0.030121875 -0.00261666666667 0.014765625 0.321416
406 1 -0.030121875 -0.00261666666667 0.015946875 0.248106
407 1 -0.030121875 -0.00261666666667 0.017128125 0.243656
408 1 -0.030121875 -0.00261666666667 0.018309375 0.200023
409 1 -0.030121875 -0.00261666666667 0.019490625 0.184941
410 1 -0.030121875 -0.00261666666667 0.020671875 0.166769
411 1 -0.030121875 -0.00125 -0.020671875 0.168841
412 1 -0.030121875 -0.00125 -0.019490625 0.237251
413 1 -0.030121875 -0.00125 -0.018309375 0.232403
414 1 -0.030121875 -0.00125 -0.017128125 0.303291
415 1 -0.030121875 -0.00125 -0.015946875 0.307746
416 1 -0.030121875 -0.00125 -0.014765625 0.369121
417 1 -0.030121875 -0.00125 -0.013584375 0.380298
418 1 -0.030121875 -0.00125 -0.012403125 0.423944
419 1 -0.030121875 -0.00125 -0.011221875 0.437151
420 1 -0.030121875 -0.00125 -0.010040625 0.4593
421 1 -0.030121875 -0.00125 -0.008859375 0.479715
422 1 -0.030121875 -0.00125 -0.007678125 0.48413
423 1 -0.030121875 -0.00125 -0.006496875 0.50814
424 1 -0.030121875 -0.00125 -0.005315625 0.496811
425 1 -0.030121875 -0.00125 -0.004134375 0.528896
426 1 -0.030121875 -0.00125 -0.002953125 0.505186
427 1 -0.030121875 -0.00125 -0.001771875 0.544166
428 1 -0.030121875 -0.00125 -0.000590625 0.508803
429 1 -0.030121875 -0.00125 0.000590625 0.555537
430 1 -0.030121875 -0.00125 0.001771875 0.508379
431 1 -0.030121875 -0.00125 0.002953125 0.558103
432 1 -0.030121875 -0.00125 0.004134375 0.493919
433 1 -0.030121875 -0.00125 0.005315625 0.549877
434 1 -0.030121875 -0.00125 0.006496875 0.470446
435 1 -0.030121875 -0.00125 0.007678125 0.521374
436 1 -0.030121875 -0.00125 0.008859375 0.427673
437 1 -0.030121875 -0.00125 0.010040625 0.471705
438 1 -0.030121875 -0.00125 0.011221875 0.374298
439 1 -0.030121875 -0.00125 0.012403125 0.403634
440 1 -0.030121875 -0.00125 0.013584375 0.311515
441 1 -0.030121875 -0.00125 0.014765625 0.321416
442 1 -0.030121875 -0.00125 0.015946875 0.248106
443 1 -0.030121875 -0.00125 0.017128125 0.243656
444 1 -0.030121875 -0.00125 0.018309375 0.200023
445 1 -0.030121875 -0.00125 0.019490625 0.184941
446 1 -0.030121875 -0.00125 0.020671875 0.166769
447 1 -0.030121875 0.000116666666667 -0.020671875 0.168841
448 1 -0.030121875 0.000116666666667 -0.019490625 0.237251
449 1 -0.030121875 0.000116666666667 -0.018309375 0.232403
450 1 -0.030121875 0.000116666666667 -0.017128125 0.303291
451 1 -0.030121875 0.000116666666667 -0.015946875 0.307746
452 1 -0.030121875 0.000116666666667 -0.014765625 0.369121
453 1 -0.030121875 0.000116666666667 -0.013584375 0.380298
454 1 -0.030121875 0.000116666666667 -0.012403125 0.423944
455 1 -0.030121875 0.000116666666667 -0.011221875 0.437151
456 1 -0.030121875 0.000116666666667 -0.010040625 0.4593
457 1 -0.030121875 0.000116666666667 -0.008859375 0.479715
458 1 -0.030121875 0.000116666666667 -0.007678125 0.48413
459 1 -0.030121875 0.000116666666667 -0.006496875 0.50814
460 1 -0.030121875 0.000116666666667 -0.005315625 0.496811
461 1 -0.030121875 0.000116666666667 -0.004134375 0.528896
462 1 -0.030121875 0.000116666666667 -0.002953125 0.505186
463 1 -0.030121875 0.000116666666667 -0.001771875 0.544166
464 1 -0.030121875 0.000116666666667 -0.000590625 0.508803
465 1 -0.030121875 0.000116666666667 0.000590625 0.555537
466 1 -0.030121875 0.000116666666667 0.001771875 0.508379
467 1 -0.030121875 0.000116666666667 0.002953125 0.558103
468 1 -0.030121875 0.000116666666667 0.004134375 0.493919
469 1 -0.030121875 0.000116666666667 0.005315625 0.549877
470 1 -0.030121875 0.000116666666667 0.006496875 0.470446
471 1 -0.030121875 0.000116666666667 0.007678125 0.521374
472 1 -0.030121875 0.000116666666667 0.008859375 0.427673
473 1 -0.030121875 0.000116666666667 0.010040625 0.471705
474 1 -0.030121875 0.000116666666667 0.011221875 0.374298
475 1 -0.030121875 0.000116666666667 0.012403125 0.403634
476 1 -0.030121875 0.000116666666667 0.013584375 0.311515
477 1 -0.030121875 0.000116666666667 0.014765625 0.321416
478 1 -0.030121875 0.000116666666667 0.015946875 0.248106
479 1 -0.030121875 0.000116666666667 0.017128125 0.243656
480 1 -0.030121875 0.000116666666667 0.018309375 0.200023
481 1 -0.030121875 0.000116666666667 0.019490625 0.184941
482 1 -0.030121875 0.000116666666667 0.020671875 0.166769
483 1 -0.028940625 -0.00261666666667 -0.021853125 0.304352
484 1 -0.028940625 -0.00261666666667 -0.020671875 0.270442
485 1 -0.028940625 -0.00261666666667 -0.019490625 0.373274
486 1 -0.028940625 -0.00261666666667 -0.018309375 0.360247
487 1 -0.028940625 -0.00261666666667 -0.017128125 0.44481
488 1 -0.028940625 -0.00261666666667 -0.015946875 0.44367
489 1 -0.028940625 -0.00261666666667 -0.014765625 0.505167
490 1 -0.028940625 -0.00261666666667 -0.013584375 0.502189
491 1 -0.028940625 -0.00261666666667 -0.012403125 0.549745
492 1 -0.028940625 -0.00261666666667 -0.011221875 0.543741
493 1 -0.028940625 -0.00261666666667 -0.010040625 0.582741
494 1 -0.028940625 -0.00261666666667 -0.008859375 0.572413
495 1 -0.028940625 -0.00261666666667 -0.007678125 0.604857
496 1 -0.028940625 -0.00261666666667 -0.006496875 0.593129
497 1 -0.028940625 -0.00261666666667 -0.005315625 0.620777
498 1 -0.028940625 -0.00261666666667 -0.004134375 0.605405
499 1 -0.028940625 -0.00261666666667 -0.002953125 0.629859
500 1 -0.028940625 -0.00261666666667 -0.001771875 0.614837
501 1 -0.028940625 -0.00261666666667 -0.000590625 0.636948
502 1 -0.028940625 -0.00261666666667 0.000590625 0.619567
503 1 -0.028940625 -0.00261666666667 0.001771875 0.637377
504 1 -0.028940625 -0.00261666666667 0.002953125 0.620198
505 1 -0.028940625 -0.00261666666667 0.004134375 0.629469
506 1 -0.028940625 -0.00261666666667 0.005315625 0.609914
507 1 -0.028940625 -0.00261666666667 0.006496875 0.609681
508 1 -0.028940625 -0.00261666666667 0.007678125 0.590574
509 1 -0.028940625 -0.00261666666667 0.008859375 0.579285
510 1 -0.028940625 -0.00261666666667 0.010040625 0.559741
511 1 -0.028940625 -0.00261666666667 0.011221875 0.536278
512 1 -0.028940625 -0.00261666666667 0.012403125 0.514213
513 1 -0.028940625 -0.00261666666667 0.013584375 0.482664
514 1 -0.028940625 -0.00261666666667 0.014765625 0.438764
515 1 -0.028940625 -0.00261666666667 0.015946875 0.416367
516 1 -0.028940625 -0.00261666666667 0.017128125 0.350596
517 1 -0.028940625 -0.00261666666667 0.018309375 0.351433
518 1 -0.028940625 -0.00261666666667 0.019490625 0.277263
519 1 -0.028940625 -0.00261666666667 0.020671875 0.301025
520 1 -0.028940625 -0.00261666666667 0.021853125 0.22288
521 1 -0.028940625 -0.00125 -0.021853125 0.304352
522 1 -0.028940625 -0.00125 -0.020671875 0.270442
523 1 -0.028940625 -0.00125 -0.019490625 0.373274
524 1 -0.028940625 -0.00125 -0.018309375 0.360247
525 1 -0.028940625 -0.00125 -0.017128125 0.44481
526 1 -0.028940625 -0.00125 -0.015946875 0.44367
527 1 -0.028940625 -0.00125 -0.014765625 0.505167
528 1 -0.028940625 -0.00125 -0.013584375 0.502189
529 1 -0.028940625 -0.00125 -0.012403125 0.549745
530 1 -0.028940625 -0.00125 -0.011221875 0.543741
531 1 -0.028940625 -0.00125 -0.010040625 0.582741
532 1 -0.028940625 -0.00125 -0.008859375 0.572413
533 1 -0.028940625 -0.00125 -0.007678125 0.604857
534 1 -0.028940625 -0.00125 -0.006496875 0.593129
535 1 -0.028940625 -0.00125 -0.005315625 0.620777
536 1 -0.028940625 -0.00125 -0.004134375 0.605405
537 1 -0.028940625 -0.00125 -0.002953125 0.629859
538 1 -0.028940625 -0.00125 -0.001771875 0.614837