ITEM: TIMESTEP
0
ITEM: NUMBER OF ATOMS
9240
ITEM: BOX BOUNDS ss ss ss
-3.7007399999999996e-02 3.7007399999999996e-02
-2.0002499999999999e-03 2.5000000000000004e-07
-3.7007399999999996e-02 3.7007399999999996e-02
ITEM: ATOMS id type x y z c_1
0 1 -0.037209375 -0.00261666666667 -0.000590625 1.0
1 1 -0.037209375 -0.00125 -0.000590625 1.0
2 1 -0.037209375 0.000116666666667 -0.000590625 1.0
3 1 -0.036028125 -0.00261666666667 -0.007678125 0.17619
4 1 -0.036028125 -0.00261666666667 -0.006496875 0.068376
5 1 -0.036028125 -0.00261666666667 -0.005315625 0.099715
6 1 -0.036028125 -0.00261666666667 -0.004134375 0.361823
7 1 -0.036028125 -0.00261666666667 -0.002953125 0.660969
8 1 -0.036028125 -0.00261666666667 -0.001771875 0.524216
9 1 -0.036028125 -0.00261666666667 -0.000590625 0.47619
10 1 -0.036028125 -0.00261666666667 0.000590625 0.575514
11 1 -0.036028125 -0.00261666666667 0.001771875 0.361823
12 1 -0.036028125 -0.00261666666667 0.002953125 0.173789
13 1 -0.036028125 -0.00261666666667 0.004134375 0.247863
14 1 -0.036028125 -0.00261666666667 0.005315625 0.148148
15 1 -0.036028125 -0.00261666666667 0.006496875 0.210826
16 1 -0.036028125 -0.00261666666667 0.007678125 0.143651
17 1 -0.036028125 -0.00125 -0.007678125 0.17619
18 1 -0.036028125 -0.00125 -0.006496875 0.068376
19 1 -0.036028125 -0.00125 -0.005315625 0.099715
20 1 -0.036028125 -0.00125 -0.004134375 0.361823
21 1 -0.036028125 -0.00125 -0.002953125 0.660969
22 1 -0.036028125 -0.00125 -0.001771875 0.524216
23 1 -0.036028125 -0.00125 -0.000590625 0.47619
24 1 -0.036028125 -0.00125 0.000590625 0.575514
25 1 -0.036028125 -0.00125 0.001771875 0.361823
26 1 -0.036028125 -0.00125 0.002953125 0.173789
27 1 -0.036028125 -0.00125 0.004134375 0.247863
28 1 -0.036028125 -0.00125 0.005315625 0.148148
29 1 -0.036028125 -0.00125 0.006496875 0.210826
30 1 -0.036028125 -0.00125 0.007678125 0.143651
31 1 -0.036028125 0.000116666666667 -0.007678125 0.17619
32 1 -0.036028125 0.000116666666667 -0.006496875 0.068376
33 1 -0.036028125 0.000116666666667 -0.005315625 0.099715
34 1 -0.036028125 0.000116666666667 -0.004134375 0.361823
35 1 -0.036028125 0.000116666666667 -0.002953125 0.660969
36 1 -0.036028125 0.000116666666667 -0.001771875 0.524216
37 1 -0.036028125 0.000116666666667 -0.000590625 0.47619
38 1 -0.036028125 0.000116666666667 0.000590625 0.575514
39 1 -0.036028125 0.000116666666667 0.001771875 0.361823
40 1 -0.036028125 0.000116666666667 0.002953125 0.173789
41 1 -0.036028125 0.000116666666667 0.004134375 0.247863
42 1 -0.036028125 0.000116666666667 0.005315625 0.148148
43 1 -0.036028125 0.000116666666667 0.006496875 0.210826
44 1 -0.036028125 0.000116666666667 0.007678125 0.143651
45 1 -0.034846875 -0.00261666666667 -0.011221875 0.0001
46 1 -0.034846875 -0.00261666666667 -0.010040625 0.311253
47 1 -0.034846875 -0.00261666666667 -0.008859375 0.363797
48 1 -0.034846875 -0.00261666666667 -0.007678125 0.354764
49 1 -0.034846875 -0.00261666666667 -0.006496875 0.279202
50 1 -0.034846875 -0.00261666666667 -0.005315625 0.389601
51 1 -0.034846875 -0.00261666666667 -0.004134375 0.599003
52 1 -0.034846875 -0.00261666666667 -0.002953125 0.538462
53 1 -0.034846875 -0.00261666666667 -0.001771875 0.529203
54 1 -0.034846875 -0.00261666666667 -0.000590625 0.547721
55 1 -0.034846875 -0.00261666666667 0.000590625 0.490741
56 1 -0.034846875 -0.00261666666667 0.001771875 0.438746
57 1 -0.034846875 -0.00261666666667 0.002953125 0.257122
58 1 -0.034846875 -0.00261666666667 0.004134375 0.190883
59 1 -0.034846875 -0.00261666666667 0.005315625 0.17094
60 1 -0.034846875 -0.00261666666667 0.006496875 0.345441
61 1 -0.034846875 -0.00261666666667 0.007678125 0.138889
62 1 -0.034846875 -0.00261666666667 0.008859375 0.419048
63 1 -0.034846875 -0.00261666666667 0.010040625 0.598291
64 1 -0.034846875 -0.00261666666667 0.011221875 0.209524
65 1 -0.034846875 -0.00125 -0.011221875 0.0001
66 1 -0.034846875 -0.00125 -0.010040625 0.311253
67 1 -0.034846875 -0.00125 -0.008859375 0.363797
68 1 -0.034846875 -0.00125 -0.007678125 0.354764
69 1 -0.034846875 -0.00125 -0.006496875 0.279202
70 1 -0.034846875 -0.00125 -0.005315625 0.389601
71 1 -0.034846875 -0.00125 -0.004134375 0.599003
72 1 -0.034846875 -0.00125 -0.002953125 0.538462
73 1 -0.034846875 -0.00125 -0.001771875 0.529203
74 1 -0.034846875 -0.00125 -0.000590625 0.547721
75 1 -0.034846875 -0.00125 0.000590625 0.490741
76 1 -0.034846875 -0.00125 0.001771875 0.438746
77 1 -0.034846875 -0.00125 0.002953125 0.257122
78 1 -0.034846875 -0.00125 0.004134375 0.190883
79 1 -0.034846875 -0.00125 0.005315625 0.17094
80 1 -0.034846875 -0.00125 0.006496875 0.345441
81 1 -0.034846875 -0.00125 0.007678125 0.138889
82 1 -0.034846875 -0.00125 0.008859375 0.419048
83 1 -0.034846875 -0.00125 0.010040625 0.598291
84 1 -0.034846875 -0.00125 0.011221875 0.209524
85 1 -0.034846875 0.000116666666667 -0.011221875 0.0001
86 1 -0.034846875 0.000116666666667 -0.010040625 0.311253
87 1 -0.034846875 0.000116666666667 -0.008859375 0.363797
88 1 -0.034846875 0.000116666666667 -0.007678125 0.354764
89 1 -0.034846875 0.000116666666667 -0.006496875 0.279202
90 1 -0.034846875 0.000116666666667 -0.005315625 0.389601
91 1 -0.034846875 0.000116666666667 -0.004134375 0.599003
92 1 -0.034846875 0.000116666666667 -0.002953125 0.538462
93 1 -0.034846875 0.000116666666667 -0.001771875 0.529203
94 1 -0.034846875 0.000116666666667 -0.000590625 0.547721
95 1 -0.034846875 0.000116666666667 0.000590625 0.490741
96 1 -0.034846875 0.000116666666667 0.001771875 0.438746
97 1 -0.034846875 0.000116666666667 0.002953125 0.257122
98 1 -0.034846875 0.000116666666667 0.004134375 0.190883
99 1 -0.034846875 0.000116666666667 0.005315625 0.17094
100 1 -0.034846875 0.000116666666667 0.006496875 0.345441
101 1 -0.034846875 0.000116666666667 0.007678125 0.138889
102 1 -0.034846875 0.000116666666667 0.008859375 0.419048
103 1 -0.034846875 0.000116666666667 0.010040625 0.598291
104 1 -0.034846875 0.000116666666667 0.011221875 0.209524
105 1 -0.033665625 -0.00261666666667 -0.013584375 0.202966
106 1 -0.033665625 -0.00261666666667 -0.012403125 0.325967
107 1 -0.033665625 -0.00261666666667 -0.011221875 0.0579185
108 1 -0.033665625 -0.00261666666667 -0.010040625 0.430199
109 1 -0.033665625 -0.00261666666667 -0.008859375 0.316239
110 1 -0.033665625 -0.00261666666667 -0.007678125 0.253561
111 1 -0.033665625 -0.00261666666667 -0.006496875 0.60114
112 1 -0.033665625 -0.00261666666667 -0.005315625 0.680912
113 1 -0.033665625 -0.00261666666667 -0.004134375 0.823362
114 1 -0.033665625 -0.00261666666667 -0.002953125 0.665242
115 1 -0.033665625 -0.00261666666667 -0.001771875 0.562678
116 1 -0.033665625 -0.00261666666667 -0.000590625 0.520299
117 1 -0.033665625 -0.00261666666667 0.000590625 0.673504
118 1 -0.033665625 -0.00261666666667 0.001771875 0.5
119 1 -0.033665625 -0.00261666666667 0.002953125 0.621083
120 1 -0.033665625 -0.00261666666667 0.004134375 0.5
121 1 -0.033665625 -0.00261666666667 0.005315625 0.367521
122 1 -0.033665625 -0.00261666666667 0.006496875 0.383191
123 1 -0.033665625 -0.00261666666667 0.007678125 0.19302
124 1 -0.033665625 -0.00261666666667 0.008859375 0.418803
125 1 -0.033665625 -0.00261666666667 0.010040625 0.67094
126 1 -0.033665625 -0.00261666666667 0.011221875 0.317517
127 1 -0.033665625 -0.00261666666667 0.012403125 0.402381
128 1 -0.033665625 -0.00261666666667 0.013584375 0.164777
129 1 -0.033665625 -0.00125 -0.013584375 0.202966
130 1 -0.033665625 -0.00125 -0.012403125 0.325967
131 1 -0.033665625 -0.00125 -0.011221875 0.0579185
132 1 -0.033665625 -0.00125 -0.010040625 0.430199
133 1 -0.033665625 -0.00125 -0.008859375 0.316239
134 1 -0.033665625 -0.00125 -0.007678125 0.253561
135 1 -0.033665625 -0.00125 -0.006496875 0.60114
136 1 -0.033665625 -0.00125 -0.005315625 0.680912
137 1 -0.033665625 -0.00125 -0.004134375 0.823362
138 1 -0.033665625 -0.00125 -0.002953125 0.665242
139 1 -0.033665625 -0.00125 -0.001771875 0.562678
140 1 -0.033665625 -0.00125 -0.000590625 0.520299
141 1 -0.033665625 -0.00125 0.000590625 0.673504
142 1 -0.033665625 -0.00125 0.001771875 0.5
143 1 -0.033665625 -0.00125 0.002953125 0.621083
144 1 -0.033665625 -0.00125 0.004134375 0.5
145 1 -0.033665625 -0.00125 0.005315625 0.367521
146 1 -0.033665625 -0.00125 0.006496875 0.383191
147 1 -0.033665625 -0.00125 0.007678125 0.19302
148 1 -0.033665625 -0.00125 0.008859375 0.418803
149 1 -0.033665625 -0.00125 0.010040625 0.67094
150 1 -0.033665625 -0.00125 0.011221875 0.317517
151 1 -0.033665625 -0.00125 0.012403125 0.402381
152 1 -0.033665625 -0.00125 0.013584375 0.164777
153 1 -0.033665625 0.000116666666667 -0.013584375 0.202966
154 1 -0.033665625 0.000116666666667 -0.012403125 0.325967
155 1 -0.033665625 0.000116666666667 -0.011221875 0.0579185
156 1 -0.033665625 0.000116666666667 -0.010040625 0.430199
157 1 -0.033665625 0.000116666666667 -0.008859375 0.316239
158 1 -0.033665625 0.000116666666667 -0.007678125 0.253561
159 1 -0.033665625 0.000116666666667 -0.006496875 0.60114
160 1 -0.033665625 0.000116666666667 -0.005315625 0.680912
161 1 -0.033665625 0.000116666666667 -0.004134375 0.823362
162 1 -0.033665625 0.000116666666667 -0.002953125 0.665242
163 1 -0.033665625 0.000116666666667 -0.001771875 0.562678
164 1 -0.033665625 0.000116666666667 -0.000590625 0.520299
165 1 -0.033665625 0.000116666666667 0.000590625 0.673504
166 1 -0.033665625 0.000116666666667 0.001771875 0.5
167 1 -0.033665625 0.000116666666667 0.002953125 0.621083
168 1 -0.033665625 0.000116666666667 0.004134375 0.5
169 1 -0.033665625 0.000116666666667 0.005315625 0.367521
170 1 -0.033665625 0.000116666666667 0.006496875 0.383191
171 1 -0.033665625 0.000116666666667 0.007678125 0.19302
172 1 -0.033665625 0.000116666666667 0.008859375 0.418803
173 1 -0.033665625 0.000116666666667 0.010040625 0.67094
174 1 -0.033665625 0.000116666666667 0.011221875 0.317517
175 1 -0.033665625 0.000116666666667 0.012403125 0.402381
176 1 -0.033665625 0.000116666666667 0.013584375 0.164777
177 1 -0.032484375 -0.00261666666667 -0.018309375 0.319048
178 1 -0.032484375 -0.00261666666667 -0.017128125 0.328571
179 1 -0.032484375 -0.00261666666667 -0.015946875 0.395425
180 1 -0.032484375 -0.00261666666667 -0.014765625 0.316239
181 1 -0.032484375 -0.00261666666667 -0.013584375 0.332621
182 1 -0.032484375 -0.00261666666667 -0.012403125 0.393162
183 1 -0.032484375 -0.00261666666667 -0.011221875 0.304843
184 1 -0.032484375 -0.00261666666667 -0.010040625 0.676638
185 1 -0.032484375 -0.00261666666667 -0.008859375 0.393162
186 1 -0.032484375 -0.00261666666667 -0.007678125 0.45584
187 1 -0.032484375 -0.00261666666667 -0.006496875 0.823362
188 1 -0.032484375 -0.00261666666667 -0.005315625 0.867521
189 1 -0.032484375 -0.00261666666667 -0.004134375 0.632479
190 1 -0.032484375 -0.00261666666667 -0.002953125 0.698006
191 1 -0.032484375 -0.00261666666667 -0.001771875 0.72792
192 1 -0.032484375 -0.00261666666667 -0.000590625 0.576923
193 1 -0.032484375 -0.00261666666667 0.000590625 0.698718
194 1 -0.032484375 -0.00261666666667 0.001771875 0.551282
195 1 -0.032484375 -0.00261666666667 0.002953125 0.444444
196 1 -0.032484375 -0.00261666666667 0.004134375 0.356125
197 1 -0.032484375 -0.00261666666667 0.005315625 0.492877
198 1 -0.032484375 -0.00261666666667 0.006496875 0.549858
199 1 -0.032484375 -0.00261666666667 0.007678125 0.360399
200 1 -0.032484375 -0.00261666666667 0.008859375 0.54416
201 1 -0.032484375 -0.00261666666667 0.010040625 0.588319
202 1 -0.032484375 -0.00261666666667 0.011221875 0.514245
203 1 -0.032484375 -0.00261666666667 0.012403125 0.470086
204 1 -0.032484375 -0.00261666666667 0.013584375 0.26282
205 1 -0.032484375 -0.00261666666667 0.014765625 0.532763
206 1 -0.032484375 -0.00261666666667 0.015946875 0.403595
207 1 -0.032484375 -0.00261666666667 0.017128125 0.238095
208 1 -0.032484375 -0.00261666666667 0.018309375 0.161905
209 1 -0.032484375 -0.00125 -0.018309375 0.319048
210 1 -0.032484375 -0.00125 -0.017128125 0.328571
211 1 -0.032484375 -0.00125 -0.015946875 0.395425
212 1 -0.032484375 -0.00125 -0.014765625 0.316239
213 1 -0.032484375 -0.00125 -0.013584375 0.332621
214 1 -0.032484375 -0.00125 -0.012403125 0.393162
215 1 -0.032484375 -0.00125 -0.011221875 0.304843
216 1 -0.032484375 -0.00125 -0.010040625 0.676638
217 1 -0.032484375 -0.00125 -0.008859375 0.393162
218 1 -0.032484375 -0.00125 -0.007678125 0.45584
219 1 -0.032484375 -0.00125 -0.006496875 0.823362
220 1 -0.032484375 -0.00125 -0.005315625 0.867521
221 1 -0.032484375 -0.00125 -0.004134375 0.632479
222 1 -0.032484375 -0.00125 -0.002953125 0.698006
223 1 -0.032484375 -0.00125 -0.001771875 0.72792
224 1 -0.032484375 -0.00125 -0.000590625 0.576923
225 1 -0.032484375 -0.00125 0.000590625 0.698718
226 1 -0.032484375 -0.00125 0.001771875 0.551282
227 1 -0.032484375 -0.00125 0.002953125 0.444444
228 1 -0.032484375 -0.00125 0.004134375 0.356125
229 1 -0.032484375 -0.00125 0.005315625 0.492877
230 1 -0.032484375 -0.00125 0.006496875 0.549858
231 1 -0.032484375 -0.00125 0.007678125 0.360399
232 1 -0.032484375 -0.00125 0.008859375 0.54416
233 1 -0.032484375 -0.00125 0.010040625 0.588319
234 1 -0.032484375 -0.00125 0.011221875 0.514245
235 1 -0.032484375 -0.00125 0.012403125 0.470086
236 1 -0.032484375 -0.00125 0.013584375 0.26282
237 1 -0.032484375 -0.00125 0.014765625 0.532763
238 1 -0.032484375 -0.00125 0.015946875 0.403595
239 1 -0.032484375 -0.00125 0.017128125 0.238095
240 1 -0.032484375 -0.00125 0.018309375 0.161905
241 1 -0.032484375 0.000116666666667 -0.018309375 0.319048
242 1 -0.032484375 0.000116666666667 -0.017128125 0.328571
243 1 -0.032484375 0.000116666666667 -0.015946875 0.395425
244 1 -0.032484375 0.000116666666667 -0.014765625 0.316239
245 1 -0.032484375 0.000116666666667 -0.013584375 0.332621
246 1 -0.032484375 0.000116666666667 -0.012403125 0.393162
247 1 -0.032484375 0.000116666666667 -0.011221875 0.304843
248 1 -0.032484375 0.000116666666667 -0.010040625 0.676638
249 1 -0.032484375 0.000116666666667 -0.008859375 0.393162
250 1 -0.032484375 0.000116666666667 -0.007678125 0.45584
251 1 -0.032484375 0.000116666666667 -0.006496875 0.823362
252 1 -0.032484375 0.000116666666667 -0.005315625 0.867521
253 1 -0.032484375 0.000116666666667 -0.004134375 0.632479
254 1 -0.032484375 0.000116666666667 -0.002953125 0.698006
255 1 -0.032484375 0.000116666666667 -0.001771875 0.72792
256 1 -0.032484375 0.000116666666667 -0.000590625 0.576923
257 1 -0.032484375 0.000116666666667 0.000590625 0.698718
258 1 -0.032484375 0.000116666666667 0.001771875 0.551282
259 1 -0.032484375 0.000116666666667 0.002953125 0.444444
260 1 -0.032484375 0.000116666666667 0.004134375 0.356125
261 1 -0.032484375 0.000116666666667 0.005315625 0.492877
262 1 -0.032484375 0.000116666666667 0.006496875 0.549858
263 1 -0.032484375 0.000116666666667 0.007678125 0.360399
264 1 -0.032484375 0.000116666666667 0.008859375 0.54416
265 1 -0.032484375 0.000116666666667 0.010040625 0.588319
266 1 -0.032484375 0.000116666666667 0.011221875 0.514245
267 1 -0.032484375 0.000116666666667 0.012403125 0.470086
268 1 -0.032484375 0.000116666666667 0.013584375 0.26282
269 1 -0.032484375 0.000116666666667 0.014765625 0.532763
270 1 -0.032484375 0.000116666666667 0.015946875 0.403595
271 1 -0.032484375 0.000116666666667 0.017128125 0.238095
272 1 -0.032484375 0.000116666666667 0.018309375 0.161905
273 1 -0.031303125 -0.00261666666667 -0.019490625 0.214286
274 1 -0.031303125 -0.00261666666667 -0.018309375 0.320261
275 1 -0.031303125 -0.00261666666667 -0.017128125 0.45584
276 1 -0.031303125 -0.00261666666667 -0.015946875 0.323362
277 1 -0.031303125 -0.00261666666667 -0.014765625 0.576923
278 1 -0.031303125 -0.00261666666667 -0.013584375 0.52208
279 1 -0.031303125 -0.00261666666667 -0.012403125 0.551282
280 1 -0.031303125 -0.00261666666667 -0.011221875 0.474359
281 1 -0.031303125 -0.00261666666667 -0.010040625 0.437322
282 1 -0.031303125 -0.00261666666667 -0.008859375 0.576923
283 1 -0.031303125 -0.00261666666667 -0.007678125 0.628205
284 1 -0.031303125 -0.00261666666667 -0.006496875 1.0
285 1 -0.031303125 -0.00261666666667 -0.005315625 0.904558
286 1 -0.031303125 -0.00261666666667 -0.004134375 0.816239
287 1 -0.031303125 -0.00261666666667 -0.002953125 0.702279
288 1 -0.031303125 -0.00261666666667 -0.001771875 0.716524
289 1 -0.031303125 -0.00261666666667 -0.000590625 0.602564
290 1 -0.031303125 -0.00261666666667 0.000590625 0.690883
291 1 -0.031303125 -0.00261666666667 0.001771875 0.511396
292 1 -0.031303125 -0.00261666666667 0.002953125 0.606838
293 1 -0.031303125 -0.00261666666667 0.004134375 0.474359
294 1 -0.031303125 -0.00261666666667 0.005315625 0.698006
295 1 -0.031303125 -0.00261666666667 0.006496875 0.7151
296 1 -0.031303125 -0.00261666666667 0.007678125 0.709402
297 1 -0.031303125 -0.00261666666667 0.008859375 0.790598
298 1 -0.031303125 -0.00261666666667 0.010040625 0.558405
299 1 -0.031303125 -0.00261666666667 0.011221875 0.367521
300 1 -0.031303125 -0.00261666666667 0.012403125 0.374644
301 1 -0.031303125 -0.00261666666667 0.013584375 0.466524
302 1 -0.031303125 -0.00261666666667 0.014765625 0.525641
303 1 -0.031303125 -0.00261666666667 0.015946875 0.323362
304 1 -0.031303125 -0.00261666666667 0.017128125 0.260684
305 1 -0.031303125 -0.00261666666667 0.018309375 0.292484
306 1 -0.031303125 -0.00261666666667 0.019490625 0.147619
307 1 -0.031303125 -0.00125 -0.019490625 0.214286
308 1 -0.031303125 -0.00125 -0.018309375 0.320261
309 1 -0.031303125 -0.00125 -0.017128125 0.45584
310 1 -0.031303125 -0.00125 -0.015946875 0.323362
311 1 -0.031303125 -0.00125 -0.014765625 0.576923
312 1 -0.031303125 -0.00125 -0.013584375 0.52208
313 1 -0.031303125 -0.00125 -0.012403125 0.551282
314 1 -0.031303125 -0.00125 -0.011221875 0.474359
315 1 -0.031303125 -0.00125 -0.010040625 0.437322
316 1 -0.031303125 -0.00125 -0.008859375 0.576923
317 1 -0.031303125 -0.00125 -0.007678125 0.628205
318 1 -0.031303125 -0.00125 -0.006496875 1.0
319 1 -0.031303125 -0.00125 -0.005315625 0.904558
320 1 -0.031303125 -0.00125 -0.004134375 0.816239
321 1 -0.031303125 -0.00125 -0.002953125 0.702279
322 1 -0.031303125 -0.00125 -0.001771875 0.716524
323 1 -0.031303125 -0.00125 -0.000590625 0.602564
324 1 -0.031303125 -0.00125 0.000590625 0.690883
325 1 -0.031303125 -0.00125 0.001771875 0.511396
326 1 -0.031303125 -0.00125 0.002953125 0.606838
327 1 -0.031303125 -0.00125 0.004134375 0.474359
328 1 -0.031303125 -0.00125 0.005315625 0.698006
329 1 -0.031303125 -0.00125 0.006496875 0.7151
330 1 -0.031303125 -0.00125 0.007678125 0.709402
331 1 -0.031303125 -0.00125 0.008859375 0.790598
332 1 -0.031303125 -0.00125 0.010040625 0.558405
333 1 -0.031303125 -0.00125 0.011221875 0.367521
334 1 -0.031303125 -0.00125 0.012403125 0.374644
335 1 -0.031303125 -0.00125 0.013584375 0.466524
336 1 -0.031303125 -0.00125 0.014765625 0.525641
337 1 -0.031303125 -0.00125 0.015946875 0.323362
338 1 -0.031303125 -0.00125 0.017128125 0.260684
339 1 -0.031303125 -0.00125 0.018309375 0.292484
340 1 -0.031303125 -0.00125 0.019490625 0.147619
341 1 -0.031303125 0.000116666666667 -0.019490625 0.214286
342 1 -0.031303125 0.000116666666667 -0.018309375 0.320261
343 1 -0.031303125 0.000116666666667 -0.017128125 0.45584
344 1 -0.031303125 0.000116666666667 -0.015946875 0.323362
345 1 -0.031303125 0.000116666666667 -0.014765625 0.576923
346 1 -0.031303125 0.000116666666667 -0.013584375 0.52208
347 1 -0.031303125 0.000116666666667 -0.012403125 0.551282
348 1 -0.031303125 0.000116666666667 -0.011221875 0.474359
349 1 -0.031303125 0.000116666666667 -0.010040625 0.437322
350 1 -0.031303125 0.000116666666667 -0.008859375 0.576923
351 1 -0.031303125 0.000116666666667 -0.007678125 0.628205
352 1 -0.031303125 0.000116666666667 -0.006496875 1.0
353 1 -0.031303125 0.000116666666667 -0.005315625 0.904558
354 1 -0.031303125 0.000116666666667 -0.004134375 0.816239
355 1 -0.031303125 0.000116666666667 -0.002953125 0.702279
356 1 -0.031303125 0.000116666666667 -0.001771875 0.716524
357 1 -0.031303125 0.000116666666667 -0.000590625 0.602564
358 1 -0.031303125 0.000116666666667 0.000590625 0.690883
359 1 -0.031303125 0.000116666666667 0.001771875 0.511396
360 1 -0.031303125 0.000116666666667 0.002953125 0.606838
361 1 -0.031303125 0.000116666666667 0.004134375 0.474359
362 1 -0.031303125 0.000116666666667 0.005315625 0.698006
363 1 -0.031303125 0.000116666666667 0.006496875 0.7151
364 1 -0.031303125 0.000116666666667 0.007678125 0.709402
365 1 -0.031303125 0.000116666666667 0.008859375 0.790598
366 1 -0.031303125 0.000116666666667 0.010040625 0.558405
367 1 -0.031303125 0.000116666666667 0.011221875 0.367521
368 1 -0.031303125 0.000116666666667 0.012403125 0.374644
369 1 -0.031303125 0.000116666666667 0.013584375 0.466524
370 1 -0.031303125 0.000116666666667 0.014765625 0.525641
371 1 -0.031303125 0.000116666666667 0.015946875 0.323362
372 1 -0.031303125 0.000116666666667 0.017128125 0.260684
373 1 -0.031303125 0.000116666666667 0.018309375 0.292484
374 1 -0.031303125 0.000116666666667 0.019490625 0.147619
375 1 -0.030121875 -0.00261666666667 -0.020671875 0.138963
376 1 -0.030121875 -0.00261666666667 -0.019490625 0.34188
377 1 -0.030121875 -0.00261666666667 -0.018309375 0.525641
378 1 -0.030121875 -0.00261666666667 -0.017128125 0.897436
379 1 -0.030121875 -0.00261666666667 -0.015946875 0.676638
380 1 -0.030121875 -0.00261666666667 -0.014765625 0.779202
381 1 -0.030121875 -0.00261666666667 -0.013584375 0.630342
382 1 -0.030121875 -0.00261666666667 -0.012403125 0.702279
383 1 -0.030121875 -0.00261666666667 -0.011221875 0.507123
384 1 -0.030121875 -0.00261666666667 -0.010040625 0.525641
385 1 -0.030121875 -0.00261666666667 -0.008859375 0.764957
386 1 -0.030121875 -0.00261666666667 -0.007678125 0.695157
387 1 -0.030121875 -0.00261666666667 -0.006496875 0.94302
388 1 -0.030121875 -0.00261666666667 -0.005315625 0.683761
389 1 -0.030121875 -0.00261666666667 -0.004134375 0.65812
390 1 -0.030121875 -0.00261666666667 -0.002953125 0.702279
391 1 -0.030121875 -0.00261666666667 -0.001771875 0.639601
392 1 -0.030121875 -0.00261666666667 -0.000590625 0.641026
393 1 -0.030121875 -0.00261666666667 0.000590625 0.618804
394 1 -0.030121875 -0.00261666666667 0.001771875 0.418803
395 1 -0.030121875 -0.00261666666667 0.002953125 0.632479
396 1 -0.030121875 -0.00261666666667 0.004134375 0.897436
397 1 -0.030121875 -0.00261666666667 0.005315625 0.739316
398 1 -0.030121875 -0.00261666666667 0.006496875 0.676638
399 1 -0.030121875 -0.00261666666667 0.007678125 0.72792
400 1 -0.030121875 -0.00261666666667 0.008859375 0.790598
401 1 -0.030121875 -0.00261666666667 0.010040625 0.665242
402 1 -0.030121875 -0.00261666666667 0.011221875 0.393162
403 1 -0.030121875 -0.00261666666667 0.012403125 0.304843
404 1 -0.030121875 -0.00261666666667 0.013584375 0.573362
405 1 -0.030121875 -0.00261666666667 0.014765625 0.555556
406 1 -0.030121875 -0.00261666666667 0.015946875 0.374644
407 1 -0.030121875 -0.00261666666667 0.017128125 0.22792
408 1 -0.030121875 -0.00261666666667 0.018309375 0.183761
409 1 -0.030121875 -0.00261666666667 0.019490625 0.146724
410 1 -0.030121875 -0.00261666666667 0.020671875 0.105429
411 1 -0.030121875 -0.00125 -0.020671875 0.138963
412 1 -0.030121875 -0.00125 -0.019490625 0.34188
413 1 -0.030121875 -0.00125 -0.018309375 0.525641
414 1 -0.030121875 -0.00125 -0.017128125 0.897436
415 1 -0.030121875 -0.00125 -0.015946875 0.676638
416 1 -0.030121875 -0.00125 -0.014765625 0.779202
417 1 -0.030121875 -0.00125 -0.013584375 0.630342
418 1 -0.030121875 -0.00125 -0.012403125 0.702279
419 1 -0.030121875 -0.00125 -0.011221875 0.507123
420 1 -0.030121875 -0.00125 -0.010040625 0.525641
421 1 -0.030121875 -0.00125 -0.008859375 0.764957
422 1 -0.030121875 -0.00125 -0.007678125 0.695157
423 1 -0.030121875 -0.00125 -0.006496875 0.94302
424 1 -0.030121875 -0.00125 -0.005315625 0.683761
425 1 -0.030121875 -0.00125 -0.004134375 0.65812
426 1 -0.030121875 -0.00125 -0.002953125 0.702279
427 1 -0.030121875 -0.00125 -0.001771875 0.639601
428 1 -0.030121875 -0.00125 -0.000590625 0.641026
429 1 -0.030121875 -0.00125 0.000590625 0.618804
430 1 -0.030121875 -0.00125 0.001771875 0.418803
431 1 -0.030121875 -0.00125 0.002953125 0.632479
432 1 -0.030121875 -0.00125 0.004134375 0.897436
433 1 -0.030121875 -0.00125 0.005315625 0.739316
434 1 -0.030121875 -0.00125 0.006496875 0.676638
435 1 -0.030121875 -0.00125 0.007678125 0.72792
436 1 -0.030121875 -0.00125 0.008859375 0.790598
437 1 -0.030121875 -0.00125 0.010040625 0.665242
438 1 -0.030121875 -0.00125 0.011221875 0.393162
439 1 -0.030121875 -0.00125 0.012403125 0.304843
440 1 -0.030121875 -0.00125 0.013584375 0.573362
441 1 -0.030121875 -0.00125 0.014765625 0.555556
442 1 -0.030121875 -0.00125 0.015946875 0.374644
443 1 -0.030121875 -0.00125 0.017128125 0.22792
444 1 -0.030121875 -0.00125 0.018309375 0.183761
445 1 -0.030121875 -0.00125 0.019490625 0.146724
446 1 -0.030121875 -0.00125 0.020671875 0.105429
447 1 -0.030121875 0.000116666666667 -0.020671875 0.138963
448 1 -0.030121875 0.000116666666667 -0.019490625 0.34188
449 1 -0.030121875 0.000116666666667 -0.018309375 0.525641
450 1 -0.030121875 0.000116666666667 -0.017128125 0.897436
451 1 -0.030121875 0.000116666666667 -0.015946875 0.676638
452 1 -0.030121875 0.000116666666667 -0.014765625 0.779202
453 1 -0.030121875 0.000116666666667 -0.013584375 0.630342
454 1 -0.030121875 0.000116666666667 -0.012403125 0.702279
455 1 -0.030121875 0.000116666666667 -0.011221875 0.507123
456 1 -0.030121875 0.000116666666667 -0.010040625 0.525641
457 1 -0.030121875 0.000116666666667 -0.008859375 0.764957
458 1 -0.030121875 0.000116666666667 -0.007678125 0.695157
459 1 -0.030121875 0.000116666666667 -0.006496875 0.94302
460 1 -0.030121875 0.000116666666667 -0.005315625 0.683761
461 1 -0.030121875 0.000116666666667 -0.004134375 0.65812
462 1 -0.030121875 0.000116666666667 -0.002953125 0.702279
463 1 -0.030121875 0.000116666666667 -0.001771875 0.639601
464 1 -0.030121875 0.000116666666667 -0.000590625 0.641026
465 1 -0.030121875 0.000116666666667 0.000590625 0.618804
466 1 -0.030121875 0.000116666666667 0.001771875 0.418803
467 1 -0.030121875 0.000116666666667 0.002953125 0.632479
468 1 -0.030121875 0.000116666666667 0.004134375 0.897436
469 1 -0.030121875 0.000116666666667 0.005315625 0.739316
470 1 -0.030121875 0.000116666666667 0.006496875 0.676638
471 1 -0.030121875 0.000116666666667 0.007678125 0.72792
472 1 -0.030121875 0.000116666666667 0.008859375 0.790598
473 1 -0.030121875 0.000116666666667 0.010040625 0.665242
474 1 -0.030121875 0.000116666666667 0.011221875 0.393162
475 1 -0.030121875 0.000116666666667 0.012403125 0.304843
476 1 -0.030121875 0.000116666666667 0.013584375 0.573362
477 1 -0.030121875 0.000116666666667 0.014765625 0.555556
478 1 -0.030121875 0.000116666666667 0.015946875 0.374644
479 1 -0.030121875 0.000116666666667 0.017128125 0.22792
480 1 -0.030121875 0.000116666666667 0.018309375 0.183761
481 1 -0.030121875 0.000116666666667 0.019490625 0.146724
482 1 -0.030121875 0.000116666666667 0.020671875 0.105429
483 1 -0.028940625 -0.00261666666667 -0.021853125 0.227273
484 1 -0.028940625 -0.00261666666667 -0.020671875 0.200331
485 1 -0.028940625 -0.00261666666667 -0.019490625 0.683761
486 1 -0.028940625 -0.00261666666667 -0.018309375 0.790598
487 1 -0.028940625 -0.00261666666667 -0.017128125 0.823362
488 1 -0.028940625 -0.00261666666667 -0.015946875 0.676638
489 1 -0.028940625 -0.00261666666667 -0.014765625 0.779202
490 1 -0.028940625 -0.00261666666667 -0.013584375 0.608262
491 1 -0.028940625 -0.00261666666667 -0.012403125 0.690883
492 1 -0.028940625 -0.00261666666667 -0.011221875 0.672365
493 1 -0.028940625 -0.00261666666667 -0.010040625 0.525641
494 1 -0.028940625 -0.00261666666667 -0.008859375 0.653846
495 1 -0.028940625 -0.00261666666667 -0.007678125 0.767806
496 1 -0.028940625 -0.00261666666667 -0.006496875 0.860399
497 1 -0.028940625 -0.00261666666667 -0.005315625 0.672365
498 1 -0.028940625 -0.00261666666667 -0.004134375 0.764957
499 1 -0.028940625 -0.00261666666667 -0.002953125 0.690883
500 1 -0.028940625 -0.00261666666667 -0.001771875 0.5
501 1 -0.028940625 -0.00261666666667 -0.000590625 0.494302
502 1 -0.028940625 -0.00261666666667 0.000590625 0.702279
503 1 -0.028940625 -0.00261666666667 0.001771875 0.581197
504 1 -0.028940625 -0.00261666666667 0.002953125 0.753561
505 1 -0.028940625 -0.00261666666667 0.004134375 0.72792
506 1 -0.028940625 -0.00261666666667 0.005315625 0.723647
507 1 -0.028940625 -0.00261666666667 0.006496875 0.700143
508 1 -0.028940625 -0.00261666666667 0.007678125 0.72792
509 1 -0.028940625 -0.00261666666667 0.008859375 0.584046
510 1 -0.028940625 -0.00261666666667 0.010040625 0.374644
511 1 -0.028940625 -0.00261666666667 0.011221875 0.304843
512 1 -0.028940625 -0.00261666666667 0.012403125 0.430199
513 1 -0.028940625 -0.00261666666667 0.013584375 0.740741
514 1 -0.028940625 -0.00261666666667 0.014765625 0.646724
515 1 -0.028940625 -0.00261666666667 0.015946875 0.551282
516 1 -0.028940625 -0.00261666666667 0.017128125 0.393162
517 1 -0.028940625 -0.00261666666667 0.018309375 0.374644
518 1 -0.028940625 -0.00261666666667 0.019490625 0.253561
519 1 -0.028940625 -0.00261666666667 0.020671875 0.209255
520 1 -0.028940625 -0.00261666666667 0.021853125 0.299242
521 1 -0.028940625 -0.00125 -0.021853125 0.227273
522 1 -0.028940625 -0.00125 -0.020671875 0.200331
523 1 -0.028940625 -0.00125 -0.019490625 0.683761
524 1 -0.028940625 -0.00125 -0.018309375 0.790598
525 1 -0.028940625 -0.00125 -0.017128125 0.823362
526 1 -0.028940625 -0.00125 -0.015946875 0.676638
527 1 -0.028940625 -0.00125 -0.014765625 0.779202
528 1 -0.028940625 -0.00125 -0.013584375 0.608262
529 1 -0.028940625 -0.00125 -0.012403125 0.690883
530 1 -0.028940625 -0.00125 -0.011221875 0.672365
531 1 -0.028940625 -0.00125 -0.010040625 0.525641
532 1 -0.028940625 -0.00125 -0.008859375 0.653846
533 1 -0.028940625 -0.00125 -0.007678125 0.767806
534 1 -0.028940625 -0.00125 -0.006496875 0.860399
535 1 -0.028940625 -0.00125 -0.005315625 0.672365
536 1 -0.028940625 -0.00125 -0.004134375 0.764957
537 1 -0.028940625 -0.00125 -0.002953125 0.690883
538 1 -0.028940625 -0.00125 -0.001771875 0.5
539 1 -0.028940625 -0.00125 -0.000590625 0.494302