ITEM: TIMESTEP
0
ITEM: NUMBER OF ATOMS
9240
ITEM: BOX BOUNDS ss ss ss
-3.7007399999999996e-02 3.7007399999999996e-02
-2.0002499999999999e-03 2.5000000000000004e-07
-3.7007399999999996e-02 3.7007399999999996e-02
ITEM: ATOMS id type x y z c_1
0 1 -0.037209375 -0.00261666666667 -0.000590625 0.0666667
1 1 -0.037209375 -0.00125 -0.000590625 0.0666667
2 1 -0.037209375 0.000116666666667 -0.000590625 0.0666667
3 1 -0.036028125 -0.00261666666667 -0.007678125 0.125132
4 1 -0.036028125 -0.00261666666667 -0.006496875 0.025641
5 1 -0.036028125 -0.00261666666667 -0.005315625 0.250712
6 1 -0.036028125 -0.00261666666667 -0.004134375 0.450142
7 1 -0.036028125 -0.00261666666667 -0.002953125 0.19943
8 1 -0.036028125 -0.00261666666667 -0.001771875 0.062678
9 1 -0.036028125 -0.00261666666667 -0.000590625 0.0333333
10 1 -0.036028125 -0.00261666666667 0.000590625 0.157143
11 1 -0.036028125 -0.00261666666667 0.001771875 0.498576
12 1 -0.036028125 -0.00261666666667 0.002953125 0.225071
13 1 -0.036028125 -0.00261666666667 0.004134375 0.236467
14 1 -0.036028125 -0.00261666666667 0.005315625 0.538462
15 1 -0.036028125 -0.00261666666667 0.006496875 0.162393
16 1 -0.036028125 -0.00261666666667 0.007678125 0.128571
17 1 -0.036028125 -0.00125 -0.007678125 0.125132
18 1 -0.036028125 -0.00125 -0.006496875 0.025641
19 1 -0.036028125 -0.00125 -0.005315625 0.250712
20 1 -0.036028125 -0.00125 -0.004134375 0.450142
21 1 -0.036028125 -0.00125 -0.002953125 0.19943
22 1 -0.036028125 -0.00125 -0.001771875 0.062678
23 1 -0.036028125 -0.00125 -0.000590625 0.0333333
24 1 -0.036028125 -0.00125 0.000590625 0.157143
25 1 -0.036028125 -0.00125 0.001771875 0.498576
26 1 -0.036028125 -0.00125 0.002953125 0.225071
27 1 -0.036028125 -0.00125 0.004134375 0.236467
28 1 -0.036028125 -0.00125 0.005315625 0.538462
29 1 -0.036028125 -0.00125 0.006496875 0.162393
30 1 -0.036028125 -0.00125 0.007678125 0.128571
31 1 -0.036028125 0.000116666666667 -0.007678125 0.125132
32 1 -0.036028125 0.000116666666667 -0.006496875 0.025641
33 1 -0.036028125 0.000116666666667 -0.005315625 0.250712
34 1 -0.036028125 0.000116666666667 -0.004134375 0.450142
35 1 -0.036028125 0.000116666666667 -0.002953125 0.19943
36 1 -0.036028125 0.000116666666667 -0.001771875 0.062678
37 1 -0.036028125 0.000116666666667 -0.000590625 0.0333333
38 1 -0.036028125 0.000116666666667 0.000590625 0.157143
39 1 -0.036028125 0.000116666666667 0.001771875 0.498576
40 1 -0.036028125 0.000116666666667 0.002953125 0.225071
41 1 -0.036028125 0.000116666666667 0.004134375 0.236467
42 1 -0.036028125 0.000116666666667 0.005315625 0.538462
43 1 -0.036028125 0.000116666666667 0.006496875 0.162393
44 1 -0.036028125 0.000116666666667 0.007678125 0.128571
45 1 -0.034846875 -0.00261666666667 -0.011221875 0.223809
46 1 -0.034846875 -0.00261666666667 -0.010040625 0.099715
47 1 -0.034846875 -0.00261666666667 -0.008859375 0.238095
48 1 -0.034846875 -0.00261666666667 -0.007678125 0.282282
49 1 -0.034846875 -0.00261666666667 -0.006496875 0.0954416
50 1 -0.034846875 -0.00261666666667 -0.005315625 0.253561
51 1 -0.034846875 -0.00261666666667 -0.004134375 0.349003
52 1 -0.034846875 -0.00261666666667 -0.002953125 0.165242
53 1 -0.034846875 -0.00261666666667 -0.001771875 0.076923
54 1 -0.034846875 -0.00261666666667 -0.000590625 0.0733618
55 1 -0.034846875 -0.00261666666667 0.000590625 0.253561
56 1 -0.034846875 -0.00261666666667 0.001771875 0.423077
57 1 -0.034846875 -0.00261666666667 0.002953125 0.202279
58 1 -0.034846875 -0.00261666666667 0.004134375 0.15812
59 1 -0.034846875 -0.00261666666667 0.005315625 0.279202
60 1 -0.034846875 -0.00261666666667 0.006496875 0.215574
61 1 -0.034846875 -0.00261666666667 0.007678125 0.29705
62 1 -0.034846875 -0.00261666666667 0.008859375 0.204599
63 1 -0.034846875 -0.00261666666667 0.010040625 0.0441595
64 1 -0.034846875 -0.00261666666667 0.011221875 0.200723
65 1 -0.034846875 -0.00125 -0.011221875 0.223809
66 1 -0.034846875 -0.00125 -0.010040625 0.099715
67 1 -0.034846875 -0.00125 -0.008859375 0.238095
68 1 -0.034846875 -0.00125 -0.007678125 0.282282
69 1 -0.034846875 -0.00125 -0.006496875 0.0954416
70 1 -0.034846875 -0.00125 -0.005315625 0.253561
71 1 -0.034846875 -0.00125 -0.004134375 0.349003
72 1 -0.034846875 -0.00125 -0.002953125 0.165242
73 1 -0.034846875 -0.00125 -0.001771875 0.076923
74 1 -0.034846875 -0.00125 -0.000590625 0.0733618
75 1 -0.034846875 -0.00125 0.000590625 0.253561
76 1 -0.034846875 -0.00125 0.001771875 0.423077
77 1 -0.034846875 -0.00125 0.002953125 0.202279
78 1 -0.034846875 -0.00125 0.004134375 0.15812
79 1 -0.034846875 -0.00125 0.005315625 0.279202
80 1 -0.034846875 -0.00125 0.006496875 0.215574
81 1 -0.034846875 -0.00125 0.007678125 0.29705
82 1 -0.034846875 -0.00125 0.008859375 0.204599
83 1 -0.034846875 -0.00125 0.010040625 0.0441595
84 1 -0.034846875 -0.00125 0.011221875 0.200723
85 1 -0.034846875 0.000116666666667 -0.011221875 0.223809
86 1 -0.034846875 0.000116666666667 -0.010040625 0.099715
87 1 -0.034846875 0.000116666666667 -0.008859375 0.238095
88 1 -0.034846875 0.000116666666667 -0.007678125 0.282282
89 1 -0.034846875 0.000116666666667 -0.006496875 0.0954416
90 1 -0.034846875 0.000116666666667 -0.005315625 0.253561
91 1 -0.034846875 0.000116666666667 -0.004134375 0.349003
92 1 -0.034846875 0.000116666666667 -0.002953125 0.165242
93 1 -0.034846875 0.000116666666667 -0.001771875 0.076923
94 1 -0.034846875 0.000116666666667 -0.000590625 0.0733618
95 1 -0.034846875 0.000116666666667 0.000590625 0.253561
96 1 -0.034846875 0.000116666666667 0.001771875 0.423077
97 1 -0.034846875 0.000116666666667 0.002953125 0.202279
98 1 -0.034846875 0.000116666666667 0.004134375 0.15812
99 1 -0.034846875 0.000116666666667 0.005315625 0.279202
100 1 -0.034846875 0.000116666666667 0.006496875 0.215574
101 1 -0.034846875 0.000116666666667 0.007678125 0.29705
102 1 -0.034846875 0.000116666666667 0.008859375 0.204599
103 1 -0.034846875 0.000116666666667 0.010040625 0.0441595
104 1 -0.034846875 0.000116666666667 0.011221875 0.200723
105 1 -0.033665625 -0.00261666666667 -0.013584375 0.324217
106 1 -0.033665625 -0.00261666666667 -0.012403125 0.38836
107 1 -0.033665625 -0.00261666666667 -0.011221875 0.343158
108 1 -0.033665625 -0.00261666666667 -0.010040625 0.237179
109 1 -0.033665625 -0.00261666666667 -0.008859375 0.12678
110 1 -0.033665625 -0.00261666666667 -0.007678125 0.307692
111 1 -0.033665625 -0.00261666666667 -0.006496875 0.486645
112 1 -0.033665625 -0.00261666666667 -0.005315625 0.330484
113 1 -0.033665625 -0.00261666666667 -0.004134375 0.339743
114 1 -0.033665625 -0.00261666666667 -0.002953125 0.301282
115 1 -0.033665625 -0.00261666666667 -0.001771875 0.273504
116 1 -0.033665625 -0.00261666666667 -0.000590625 0.281695
117 1 -0.033665625 -0.00261666666667 0.000590625 0.624644
118 1 -0.033665625 -0.00261666666667 0.001771875 0.44302
119 1 -0.033665625 -0.00261666666667 0.002953125 0.14886
120 1 -0.033665625 -0.00261666666667 0.004134375 0.168803
121 1 -0.033665625 -0.00261666666667 0.005315625 0.405983
122 1 -0.033665625 -0.00261666666667 0.006496875 0.466762
123 1 -0.033665625 -0.00261666666667 0.007678125 0.595442
124 1 -0.033665625 -0.00261666666667 0.008859375 0.209402
125 1 -0.033665625 -0.00261666666667 0.010040625 0.316239
126 1 -0.033665625 -0.00261666666667 0.011221875 0.532763
127 1 -0.033665625 -0.00261666666667 0.012403125 0.462963
128 1 -0.033665625 -0.00261666666667 0.013584375 0.312343
129 1 -0.033665625 -0.00125 -0.013584375 0.324217
130 1 -0.033665625 -0.00125 -0.012403125 0.38836
131 1 -0.033665625 -0.00125 -0.011221875 0.343158
132 1 -0.033665625 -0.00125 -0.010040625 0.237179
133 1 -0.033665625 -0.00125 -0.008859375 0.12678
134 1 -0.033665625 -0.00125 -0.007678125 0.307692
135 1 -0.033665625 -0.00125 -0.006496875 0.486645
136 1 -0.033665625 -0.00125 -0.005315625 0.330484
137 1 -0.033665625 -0.00125 -0.004134375 0.339743
138 1 -0.033665625 -0.00125 -0.002953125 0.301282
139 1 -0.033665625 -0.00125 -0.001771875 0.273504
140 1 -0.033665625 -0.00125 -0.000590625 0.281695
141 1 -0.033665625 -0.00125 0.000590625 0.624644
142 1 -0.033665625 -0.00125 0.001771875 0.44302
143 1 -0.033665625 -0.00125 0.002953125 0.14886
144 1 -0.033665625 -0.00125 0.004134375 0.168803
145 1 -0.033665625 -0.00125 0.005315625 0.405983
146 1 -0.033665625 -0.00125 0.006496875 0.466762
147 1 -0.033665625 -0.00125 0.007678125 0.595442
148 1 -0.033665625 -0.00125 0.008859375 0.209402
149 1 -0.033665625 -0.00125 0.010040625 0.316239
150 1 -0.033665625 -0.00125 0.011221875 0.532763
151 1 -0.033665625 -0.00125 0.012403125 0.462963
152 1 -0.033665625 -0.00125 0.013584375 0.312343
153 1 -0.033665625 0.000116666666667 -0.013584375 0.324217
154 1 -0.033665625 0.000116666666667 -0.012403125 0.38836
155 1 -0.033665625 0.000116666666667 -0.011221875 0.343158
156 1 -0.033665625 0.000116666666667 -0.010040625 0.237179
157 1 -0.033665625 0.000116666666667 -0.008859375 0.12678
158 1 -0.033665625 0.000116666666667 -0.007678125 0.307692
159 1 -0.033665625 0.000116666666667 -0.006496875 0.486645
160 1 -0.033665625 0.000116666666667 -0.005315625 0.330484
161 1 -0.033665625 0.000116666666667 -0.004134375 0.339743
162 1 -0.033665625 0.000116666666667 -0.002953125 0.301282
163 1 -0.033665625 0.000116666666667 -0.001771875 0.273504
164 1 -0.033665625 0.000116666666667 -0.000590625 0.281695
165 1 -0.033665625 0.000116666666667 0.000590625 0.624644
166 1 -0.033665625 0.000116666666667 0.001771875 0.44302
167 1 -0.033665625 0.000116666666667 0.002953125 0.14886
168 1 -0.033665625 0.000116666666667 0.004134375 0.168803
169 1 -0.033665625 0.000116666666667 0.005315625 0.405983
170 1 -0.033665625 0.000116666666667 0.006496875 0.466762
171 1 -0.033665625 0.000116666666667 0.007678125 0.595442
172 1 -0.033665625 0.000116666666667 0.008859375 0.209402
173 1 -0.033665625 0.000116666666667 0.010040625 0.316239
174 1 -0.033665625 0.000116666666667 0.011221875 0.532763
175 1 -0.033665625 0.000116666666667 0.012403125 0.462963
176 1 -0.033665625 0.000116666666667 0.013584375 0.312343
177 1 -0.032484375 -0.00261666666667 -0.018309375 0.0809523
178 1 -0.032484375 -0.00261666666667 -0.017128125 0.0001
179 1 -0.032484375 -0.00261666666667 -0.015946875 0.0277778
180 1 -0.032484375 -0.00261666666667 -0.014765625 0.0698006
181 1 -0.032484375 -0.00261666666667 -0.013584375 0.0918803
182 1 -0.032484375 -0.00261666666667 -0.012403125 0.34188
183 1 -0.032484375 -0.00261666666667 -0.011221875 0.507122
184 1 -0.032484375 -0.00261666666667 -0.010040625 0.462963
185 1 -0.032484375 -0.00261666666667 -0.008859375 0.323362
186 1 -0.032484375 -0.00261666666667 -0.007678125 0.22792
187 1 -0.032484375 -0.00261666666667 -0.006496875 0.459401
188 1 -0.032484375 -0.00261666666667 -0.005315625 0.411681
189 1 -0.032484375 -0.00261666666667 -0.004134375 0.311966
190 1 -0.032484375 -0.00261666666667 -0.002953125 0.411681
191 1 -0.032484375 -0.00261666666667 -0.001771875 0.374644
192 1 -0.032484375 -0.00261666666667 -0.000590625 0.387464
193 1 -0.032484375 -0.00261666666667 0.000590625 0.749288
194 1 -0.032484375 -0.00261666666667 0.001771875 0.746439
195 1 -0.032484375 -0.00261666666667 0.002953125 0.488604
196 1 -0.032484375 -0.00261666666667 0.004134375 0.569801
197 1 -0.032484375 -0.00261666666667 0.005315625 0.650997
198 1 -0.032484375 -0.00261666666667 0.006496875 0.700143
199 1 -0.032484375 -0.00261666666667 0.007678125 0.77208
200 1 -0.032484375 -0.00261666666667 0.008859375 0.5
201 1 -0.032484375 -0.00261666666667 0.010040625 0.672365
202 1 -0.032484375 -0.00261666666667 0.011221875 0.683761
203 1 -0.032484375 -0.00261666666667 0.012403125 0.602564
204 1 -0.032484375 -0.00261666666667 0.013584375 0.402422
205 1 -0.032484375 -0.00261666666667 0.014765625 0.316239
206 1 -0.032484375 -0.00261666666667 0.015946875 0.348039
207 1 -0.032484375 -0.00261666666667 0.017128125 0.180952
208 1 -0.032484375 -0.00261666666667 0.018309375 0.257143
209 1 -0.032484375 -0.00125 -0.018309375 0.0809523
210 1 -0.032484375 -0.00125 -0.017128125 0.0001
211 1 -0.032484375 -0.00125 -0.015946875 0.0277778
212 1 -0.032484375 -0.00125 -0.014765625 0.0698006
213 1 -0.032484375 -0.00125 -0.013584375 0.0918803
214 1 -0.032484375 -0.00125 -0.012403125 0.34188
215 1 -0.032484375 -0.00125 -0.011221875 0.507122
216 1 -0.032484375 -0.00125 -0.010040625 0.462963
217 1 -0.032484375 -0.00125 -0.008859375 0.323362
218 1 -0.032484375 -0.00125 -0.007678125 0.22792
219 1 -0.032484375 -0.00125 -0.006496875 0.459401
220 1 -0.032484375 -0.00125 -0.005315625 0.411681
221 1 -0.032484375 -0.00125 -0.004134375 0.311966
222 1 -0.032484375 -0.00125 -0.002953125 0.411681
223 1 -0.032484375 -0.00125 -0.001771875 0.374644
224 1 -0.032484375 -0.00125 -0.000590625 0.387464
225 1 -0.032484375 -0.00125 0.000590625 0.749288
226 1 -0.032484375 -0.00125 0.001771875 0.746439
227 1 -0.032484375 -0.00125 0.002953125 0.488604
228 1 -0.032484375 -0.00125 0.004134375 0.569801
229 1 -0.032484375 -0.00125 0.005315625 0.650997
230 1 -0.032484375 -0.00125 0.006496875 0.700143
231 1 -0.032484375 -0.00125 0.007678125 0.77208
232 1 -0.032484375 -0.00125 0.008859375 0.5
233 1 -0.032484375 -0.00125 0.010040625 0.672365
234 1 -0.032484375 -0.00125 0.011221875 0.683761
235 1 -0.032484375 -0.00125 0.012403125 0.602564
236 1 -0.032484375 -0.00125 0.013584375 0.402422
237 1 -0.032484375 -0.00125 0.014765625 0.316239
238 1 -0.032484375 -0.00125 0.015946875 0.348039
239 1 -0.032484375 -0.00125 0.017128125 0.180952
240 1 -0.032484375 -0.00125 0.018309375 0.257143
241 1 -0.032484375 0.000116666666667 -0.018309375 0.0809523
242 1 -0.032484375 0.000116666666667 -0.017128125 0.0001
243 1 -0.032484375 0.000116666666667 -0.015946875 0.0277778
244 1 -0.032484375 0.000116666666667 -0.014765625 0.0698006
245 1 -0.032484375 0.000116666666667 -0.013584375 0.0918803
246 1 -0.032484375 0.000116666666667 -0.012403125 0.34188
247 1 -0.032484375 0.000116666666667 -0.011221875 0.507122
248 1 -0.032484375 0.000116666666667 -0.010040625 0.462963
249 1 -0.032484375 0.000116666666667 -0.008859375 0.323362
250 1 -0.032484375 0.000116666666667 -0.007678125 0.22792
251 1 -0.032484375 0.000116666666667 -0.006496875 0.459401
252 1 -0.032484375 0.000116666666667 -0.005315625 0.411681
253 1 -0.032484375 0.000116666666667 -0.004134375 0.311966
254 1 -0.032484375 0.000116666666667 -0.002953125 0.411681
255 1 -0.032484375 0.000116666666667 -0.001771875 0.374644
256 1 -0.032484375 0.000116666666667 -0.000590625 0.387464
257 1 -0.032484375 0.000116666666667 0.000590625 0.749288
258 1 -0.032484375 0.000116666666667 0.001771875 0.746439
259 1 -0.032484375 0.000116666666667 0.002953125 0.488604
260 1 -0.032484375 0.000116666666667 0.004134375 0.569801
261 1 -0.032484375 0.000116666666667 0.005315625 0.650997
262 1 -0.032484375 0.000116666666667 0.006496875 0.700143
263 1 -0.032484375 0.000116666666667 0.007678125 0.77208
264 1 -0.032484375 0.000116666666667 0.008859375 0.5
265 1 -0.032484375 0.000116666666667 0.010040625 0.672365
266 1 -0.032484375 0.000116666666667 0.011221875 0.683761
267 1 -0.032484375 0.000116666666667 0.012403125 0.602564
268 1 -0.032484375 0.000116666666667 0.013584375 0.402422
269 1 -0.032484375 0.000116666666667 0.014765625 0.316239
270 1 -0.032484375 0.000116666666667 0.015946875 0.348039
271 1 -0.032484375 0.000116666666667 0.017128125 0.180952
272 1 -0.032484375 0.000116666666667 0.018309375 0.257143
273 1 -0.031303125 -0.00261666666667 -0.019490625 0.614286
274 1 -0.031303125 -0.00261666666667 -0.018309375 0.197713
275 1 -0.031303125 -0.00261666666667 -0.017128125 0.025641
276 1 -0.031303125 -0.00261666666667 -0.015946875 0.121083
277 1 -0.031303125 -0.00261666666667 -0.014765625 0.15812
278 1 -0.031303125 -0.00261666666667 -0.013584375 0.183761
279 1 -0.031303125 -0.00261666666667 -0.012403125 0.374644
280 1 -0.031303125 -0.00261666666667 -0.011221875 0.683761
281 1 -0.031303125 -0.00261666666667 -0.010040625 0.646724
282 1 -0.031303125 -0.00261666666667 -0.008859375 0.665242
283 1 -0.031303125 -0.00261666666667 -0.007678125 0.474359
284 1 -0.031303125 -0.00261666666667 -0.006496875 0.485043
285 1 -0.031303125 -0.00261666666667 -0.005315625 0.716524
286 1 -0.031303125 -0.00261666666667 -0.004134375 0.390313
287 1 -0.031303125 -0.00261666666667 -0.002953125 0.537037
288 1 -0.031303125 -0.00261666666667 -0.001771875 0.695157
289 1 -0.031303125 -0.00261666666667 -0.000590625 0.604701
290 1 -0.031303125 -0.00261666666667 0.000590625 0.393162
291 1 -0.031303125 -0.00261666666667 0.001771875 0.5
292 1 -0.031303125 -0.00261666666667 0.002953125 0.739316
293 1 -0.031303125 -0.00261666666667 0.004134375 0.735043
294 1 -0.031303125 -0.00261666666667 0.005315625 0.698006
295 1 -0.031303125 -0.00261666666667 0.006496875 0.7151
296 1 -0.031303125 -0.00261666666667 0.007678125 0.595442
297 1 -0.031303125 -0.00261666666667 0.008859375 0.54416
298 1 -0.031303125 -0.00261666666667 0.010040625 0.753561
299 1 -0.031303125 -0.00261666666667 0.011221875 0.816239
300 1 -0.031303125 -0.00261666666667 0.012403125 0.639601
301 1 -0.031303125 -0.00261666666667 0.013584375 0.519943
302 1 -0.031303125 -0.00261666666667 0.014765625 0.448718
303 1 -0.031303125 -0.00261666666667 0.015946875 0.349003
304 1 -0.031303125 -0.00261666666667 0.017128125 0.374644
305 1 -0.031303125 -0.00261666666667 0.018309375 0.375817
306 1 -0.031303125 -0.00261666666667 0.019490625 0.328571
307 1 -0.031303125 -0.00125 -0.019490625 0.614286
308 1 -0.031303125 -0.00125 -0.018309375 0.197713
309 1 -0.031303125 -0.00125 -0.017128125 0.025641
310 1 -0.031303125 -0.00125 -0.015946875 0.121083
311 1 -0.031303125 -0.00125 -0.014765625 0.15812
312 1 -0.031303125 -0.00125 -0.013584375 0.183761
313 1 -0.031303125 -0.00125 -0.012403125 0.374644
314 1 -0.031303125 -0.00125 -0.011221875 0.683761
315 1 -0.031303125 -0.00125 -0.010040625 0.646724
316 1 -0.031303125 -0.00125 -0.008859375 0.665242
317 1 -0.031303125 -0.00125 -0.007678125 0.474359
318 1 -0.031303125 -0.00125 -0.006496875 0.485043
319 1 -0.031303125 -0.00125 -0.005315625 0.716524
320 1 -0.031303125 -0.00125 -0.004134375 0.390313
321 1 -0.031303125 -0.00125 -0.002953125 0.537037
322 1 -0.031303125 -0.00125 -0.001771875 0.695157
323 1 -0.031303125 -0.00125 -0.000590625 0.604701
324 1 -0.031303125 -0.00125 0.000590625 0.393162
325 1 -0.031303125 -0.00125 0.001771875 0.5
326 1 -0.031303125 -0.00125 0.002953125 0.739316
327 1 -0.031303125 -0.00125 0.004134375 0.735043
328 1 -0.031303125 -0.00125 0.005315625 0.698006
329 1 -0.031303125 -0.00125 0.006496875 0.7151
330 1 -0.031303125 -0.00125 0.007678125 0.595442
331 1 -0.031303125 -0.00125 0.008859375 0.54416
332 1 -0.031303125 -0.00125 0.010040625 0.753561
333 1 -0.031303125 -0.00125 0.011221875 0.816239
334 1 -0.031303125 -0.00125 0.012403125 0.639601
335 1 -0.031303125 -0.00125 0.013584375 0.519943
336 1 -0.031303125 -0.00125 0.014765625 0.448718
337 1 -0.031303125 -0.00125 0.015946875 0.349003
338 1 -0.031303125 -0.00125 0.017128125 0.374644
339 1 -0.031303125 -0.00125 0.018309375 0.375817
340 1 -0.031303125 -0.00125 0.019490625 0.328571
341 1 -0.031303125 0.000116666666667 -0.019490625 0.614286
342 1 -0.031303125 0.000116666666667 -0.018309375 0.197713
343 1 -0.031303125 0.000116666666667 -0.017128125 0.025641
344 1 -0.031303125 0.000116666666667 -0.015946875 0.121083
345 1 -0.031303125 0.000116666666667 -0.014765625 0.15812
346 1 -0.031303125 0.000116666666667 -0.013584375 0.183761
347 1 -0.031303125 0.000116666666667 -0.012403125 0.374644
348 1 -0.031303125 0.000116666666667 -0.011221875 0.683761
349 1 -0.031303125 0.000116666666667 -0.010040625 0.646724
350 1 -0.031303125 0.000116666666667 -0.008859375 0.665242
351 1 -0.031303125 0.000116666666667 -0.007678125 0.474359
352 1 -0.031303125 0.000116666666667 -0.006496875 0.485043
353 1 -0.031303125 0.000116666666667 -0.005315625 0.716524
354 1 -0.031303125 0.000116666666667 -0.004134375 0.390313
355 1 -0.031303125 0.000116666666667 -0.002953125 0.537037
356 1 -0.031303125 0.000116666666667 -0.001771875 0.695157
357 1 -0.031303125 0.000116666666667 -0.000590625 0.604701
358 1 -0.031303125 0.000116666666667 0.000590625 0.393162
359 1 -0.031303125 0.000116666666667 0.001771875 0.5
360 1 -0.031303125 0.000116666666667 0.002953125 0.739316
361 1 -0.031303125 0.000116666666667 0.004134375 0.735043
362 1 -0.031303125 0.000116666666667 0.005315625 0.698006
363 1 -0.031303125 0.000116666666667 0.006496875 0.7151
364 1 -0.031303125 0.000116666666667 0.007678125 0.595442
365 1 -0.031303125 0.000116666666667 0.008859375 0.54416
366 1 -0.031303125 0.000116666666667 0.010040625 0.753561
367 1 -0.031303125 0.000116666666667 0.011221875 0.816239
368 1 -0.031303125 0.000116666666667 0.012403125 0.639601
369 1 -0.031303125 0.000116666666667 0.013584375 0.519943
370 1 -0.031303125 0.000116666666667 0.014765625 0.448718
371 1 -0.031303125 0.000116666666667 0.015946875 0.349003
372 1 -0.031303125 0.000116666666667 0.017128125 0.374644
373 1 -0.031303125 0.000116666666667 0.018309375 0.375817
374 1 -0.031303125 0.000116666666667 0.019490625 0.328571
375 1 -0.030121875 -0.00261666666667 -0.020671875 0.21123
376 1 -0.030121875 -0.00261666666667 -0.019490625 0.462963
377 1 -0.030121875 -0.00261666666667 -0.018309375 0.418803
378 1 -0.030121875 -0.00261666666667 -0.017128125 0.183761
379 1 -0.030121875 -0.00261666666667 -0.015946875 0.0954416
380 1 -0.030121875 -0.00261666666667 -0.014765625 0.260684
381 1 -0.030121875 -0.00261666666667 -0.013584375 0.417379
382 1 -0.030121875 -0.00261666666667 -0.012403125 0.400285
383 1 -0.030121875 -0.00261666666667 -0.011221875 0.411681
384 1 -0.030121875 -0.00261666666667 -0.010040625 0.551282
385 1 -0.030121875 -0.00261666666667 -0.008859375 0.690883
386 1 -0.030121875 -0.00261666666667 -0.007678125 0.816239
387 1 -0.030121875 -0.00261666666667 -0.006496875 0.529202
388 1 -0.030121875 -0.00261666666667 -0.005315625 0.753561
389 1 -0.030121875 -0.00261666666667 -0.004134375 0.650997
390 1 -0.030121875 -0.00261666666667 -0.002953125 0.621083
391 1 -0.030121875 -0.00261666666667 -0.001771875 0.606838
392 1 -0.030121875 -0.00261666666667 -0.000590625 0.435185
393 1 -0.030121875 -0.00261666666667 0.000590625 0.45584
394 1 -0.030121875 -0.00261666666667 0.001771875 0.625356
395 1 -0.030121875 -0.00261666666667 0.002953125 0.739316
396 1 -0.030121875 -0.00261666666667 0.004134375 0.72792
397 1 -0.030121875 -0.00261666666667 0.005315625 0.709402
398 1 -0.030121875 -0.00261666666667 0.006496875 0.569801
399 1 -0.030121875 -0.00261666666667 0.007678125 0.625356
400 1 -0.030121875 -0.00261666666667 0.008859375 0.716524
401 1 -0.030121875 -0.00261666666667 0.010040625 0.88604
402 1 -0.030121875 -0.00261666666667 0.011221875 0.690883
403 1 -0.030121875 -0.00261666666667 0.012403125 0.753561
404 1 -0.030121875 -0.00261666666667 0.013584375 0.674502
405 1 -0.030121875 -0.00261666666667 0.014765625 0.621083
406 1 -0.030121875 -0.00261666666667 0.015946875 0.5
407 1 -0.030121875 -0.00261666666667 0.017128125 0.514245
408 1 -0.030121875 -0.00261666666667 0.018309375 0.576923
409 1 -0.030121875 -0.00261666666667 0.019490625 0.569801
410 1 -0.030121875 -0.00261666666667 0.020671875 0.458816
411 1 -0.030121875 -0.00125 -0.020671875 0.21123
412 1 -0.030121875 -0.00125 -0.019490625 0.462963
413 1 -0.030121875 -0.00125 -0.018309375 0.418803
414 1 -0.030121875 -0.00125 -0.017128125 0.183761
415 1 -0.030121875 -0.00125 -0.015946875 0.0954416
416 1 -0.030121875 -0.00125 -0.014765625 0.260684
417 1 -0.030121875 -0.00125 -0.013584375 0.417379
418 1 -0.030121875 -0.00125 -0.012403125 0.400285
419 1 -0.030121875 -0.00125 -0.011221875 0.411681
420 1 -0.030121875 -0.00125 -0.010040625 0.551282
421 1 -0.030121875 -0.00125 -0.008859375 0.690883
422 1 -0.030121875 -0.00125 -0.007678125 0.816239
423 1 -0.030121875 -0.00125 -0.006496875 0.529202
424 1 -0.030121875 -0.00125 -0.005315625 0.753561
425 1 -0.030121875 -0.00125 -0.004134375 0.650997
426 1 -0.030121875 -0.00125 -0.002953125 0.621083
427 1 -0.030121875 -0.00125 -0.001771875 0.606838
428 1 -0.030121875 -0.00125 -0.000590625 0.435185
429 1 -0.030121875 -0.00125 0.000590625 0.45584
430 1 -0.030121875 -0.00125 0.001771875 0.625356
431 1 -0.030121875 -0.00125 0.002953125 0.739316
432 1 -0.030121875 -0.00125 0.004134375 0.72792
433 1 -0.030121875 -0.00125 0.005315625 0.709402
434 1 -0.030121875 -0.00125 0.006496875 0.569801
435 1 -0.030121875 -0.00125 0.007678125 0.625356
436 1 -0.030121875 -0.00125 0.008859375 0.716524
437 1 -0.030121875 -0.00125 0.010040625 0.88604
438 1 -0.030121875 -0.00125 0.011221875 0.690883
439 1 -0.030121875 -0.00125 0.012403125 0.753561
440 1 -0.030121875 -0.00125 0.013584375 0.674502
441 1 -0.030121875 -0.00125 0.014765625 0.621083
442 1 -0.030121875 -0.00125 0.015946875 0.5
443 1 -0.030121875 -0.00125 0.017128125 0.514245
444 1 -0.030121875 -0.00125 0.018309375 0.576923
445 1 -0.030121875 -0.00125 0.019490625 0.569801
446 1 -0.030121875 -0.00125 0.020671875 0.458816
447 1 -0.030121875 0.000116666666667 -0.020671875 0.21123
448 1 -0.030121875 0.000116666666667 -0.019490625 0.462963
449 1 -0.030121875 0.000116666666667 -0.018309375 0.418803
450 1 -0.030121875 0.000116666666667 -0.017128125 0.183761
451 1 -0.030121875 0.000116666666667 -0.015946875 0.0954416
452 1 -0.030121875 0.000116666666667 -0.014765625 0.260684
453 1 -0.030121875 0.000116666666667 -0.013584375 0.417379
454 1 -0.030121875 0.000116666666667 -0.012403125 0.400285
455 1 -0.030121875 0.000116666666667 -0.011221875 0.411681
456 1 -0.030121875 0.000116666666667 -0.010040625 0.551282
457 1 -0.030121875 0.000116666666667 -0.008859375 0.690883
458 1 -0.030121875 0.000116666666667 -0.007678125 0.816239
459 1 -0.030121875 0.000116666666667 -0.006496875 0.529202
460 1 -0.030121875 0.000116666666667 -0.005315625 0.753561
461 1 -0.030121875 0.000116666666667 -0.004134375 0.650997
462 1 -0.030121875 0.000116666666667 -0.002953125 0.621083
463 1 -0.030121875 0.000116666666667 -0.001771875 0.606838
464 1 -0.030121875 0.000116666666667 -0.000590625 0.435185
465 1 -0.030121875 0.000116666666667 0.000590625 0.45584
466 1 -0.030121875 0.000116666666667 0.001771875 0.625356
467 1 -0.030121875 0.000116666666667 0.002953125 0.739316
468 1 -0.030121875 0.000116666666667 0.004134375 0.72792
469 1 -0.030121875 0.000116666666667 0.005315625 0.709402
470 1 -0.030121875 0.000116666666667 0.006496875 0.569801
471 1 -0.030121875 0.000116666666667 0.007678125 0.625356
472 1 -0.030121875 0.000116666666667 0.008859375 0.716524
473 1 -0.030121875 0.000116666666667 0.010040625 0.88604
474 1 -0.030121875 0.000116666666667 0.011221875 0.690883
475 1 -0.030121875 0.000116666666667 0.012403125 0.753561
476 1 -0.030121875 0.000116666666667 0.013584375 0.674502
477 1 -0.030121875 0.000116666666667 0.014765625 0.621083
478 1 -0.030121875 0.000116666666667 0.015946875 0.5
479 1 -0.030121875 0.000116666666667 0.017128125 0.514245
480 1 -0.030121875 0.000116666666667 0.018309375 0.576923
481 1 -0.030121875 0.000116666666667 0.019490625 0.569801
482 1 -0.030121875 0.000116666666667 0.020671875 0.458816
483 1 -0.028940625 -0.00261666666667 -0.021853125 0.19697
484 1 -0.028940625 -0.00261666666667 -0.020671875 0.0493338
485 1 -0.028940625 -0.00261666666667 -0.019490625 0.260684
486 1 -0.028940625 -0.00261666666667 -0.018309375 0.367521
487 1 -0.028940625 -0.00261666666667 -0.017128125 0.279202
488 1 -0.028940625 -0.00261666666667 -0.015946875 0.304843
489 1 -0.028940625 -0.00261666666667 -0.014765625 0.309117
490 1 -0.028940625 -0.00261666666667 -0.013584375 0.497863
491 1 -0.028940625 -0.00261666666667 -0.012403125 0.349003
492 1 -0.028940625 -0.00261666666667 -0.011221875 0.393162
493 1 -0.028940625 -0.00261666666667 -0.010040625 0.423077
494 1 -0.028940625 -0.00261666666667 -0.008859375 0.532764
495 1 -0.028940625 -0.00261666666667 -0.007678125 0.790598
496 1 -0.028940625 -0.00261666666667 -0.006496875 0.560541
497 1 -0.028940625 -0.00261666666667 -0.005315625 0.418803
498 1 -0.028940625 -0.00261666666667 -0.004134375 0.746439
499 1 -0.028940625 -0.00261666666667 -0.002953125 0.77208
500 1 -0.028940625 -0.00261666666667 -0.001771875 0.753561
501 1 -0.028940625 -0.00261666666667 -0.000590625 0.763248
502 1 -0.028940625 -0.00261666666667 0.000590625 0.762821
503 1 -0.028940625 -0.00261666666667 0.001771875 0.653846
504 1 -0.028940625 -0.00261666666667 0.002953125 0.602564
505 1 -0.028940625 -0.00261666666667 0.004134375 0.690883
506 1 -0.028940625 -0.00261666666667 0.005315625 0.595442
507 1 -0.028940625 -0.00261666666667 0.006496875 0.540598
508 1 -0.028940625 -0.00261666666667 0.007678125 0.676638
509 1 -0.028940625 -0.00261666666667 0.008859375 0.753561
510 1 -0.028940625 -0.00261666666667 0.010040625 0.779202
511 1 -0.028940625 -0.00261666666667 0.011221875 0.595442
512 1 -0.028940625 -0.00261666666667 0.012403125 0.849003
513 1 -0.028940625 -0.00261666666667 0.013584375 0.690883
514 1 -0.028940625 -0.00261666666667 0.014765625 0.650997
515 1 -0.028940625 -0.00261666666667 0.015946875 0.481481
516 1 -0.028940625 -0.00261666666667 0.017128125 0.588319
517 1 -0.028940625 -0.00261666666667 0.018309375 0.797721
518 1 -0.028940625 -0.00261666666667 0.019490625 0.746439
519 1 -0.028940625 -0.00261666666667 0.020671875 0.332684
520 1 -0.028940625 -0.00261666666667 0.021853125 0.568182
521 1 -0.028940625 -0.00125 -0.021853125 0.19697
522 1 -0.028940625 -0.00125 -0.020671875 0.0493338
523 1 -0.028940625 -0.00125 -0.019490625 0.260684
524 1 -0.028940625 -0.00125 -0.018309375 0.367521
525 1 -0.028940625 -0.00125 -0.017128125 0.279202
526 1 -0.028940625 -0.00125 -0.015946875 0.304843
527 1 -0.028940625 -0.00125 -0.014765625 0.309117
528 1 -0.028940625 -0.00125 -0.013584375 0.497863
529 1 -0.028940625 -0.00125 -0.012403125 0.349003
530 1 -0.028940625 -0.00125 -0.011221875 0.393162
531 1 -0.028940625 -0.00125 -0.010040625 0.423077
532 1 -0.028940625 -0.00125 -0.008859375 0.532764
533 1 -0.028940625 -0.00125 -0.007678125 0.790598
534 1 -0.028940625 -0.00125 -0.006496875 0.560541
535 1 -0.028940625 -0.00125 -0.005315625 0.418803
536 1 -0.028940625 -0.00125 -0.004134375 0.746439
537 1 -0.028940625 -0.00125 -0.002953125 0.77208
538 1 -0.028940625 -0.00125 -0.001771875 0.753561