ITEM: TIMESTEP
0
ITEM: NUMBER OF ATOMS
9240
ITEM: BOX BOUNDS ss ss ss
-3.7007399999999996e-02 3.7007399999999996e-02
-2.0002499999999999e-03 2.5000000000000004e-07
-3.7007399999999996e-02 3.7007399999999996e-02
ITEM: ATOMS id type x y z c_1
0 1 -0.037209375 -0.00261666666667 -0.000590625 1.0
1 1 -0.037209375 -0.00125 -0.000590625 1.0
2 1 -0.037209375 0.000116666666667 -0.000590625 1.0
3 1 -0.036028125 -0.00261666666667 -0.007678125 0.0001
4 1 -0.036028125 -0.00261666666667 -0.006496875 0.099715
5 1 -0.036028125 -0.00261666666667 -0.005315625 0.0498575
6 1 -0.036028125 -0.00261666666667 -0.004134375 0.0001
7 1 -0.036028125 -0.00261666666667 -0.002953125 0.0001
8 1 -0.036028125 -0.00261666666667 -0.001771875 0.111111
9 1 -0.036028125 -0.00261666666667 -0.000590625 0.180952
10 1 -0.036028125 -0.00261666666667 0.000590625 0.0692911
11 1 -0.036028125 -0.00261666666667 0.001771875 0.0001
12 1 -0.036028125 -0.00261666666667 0.002953125 0.0001
13 1 -0.036028125 -0.00261666666667 0.004134375 0.062678
14 1 -0.036028125 -0.00261666666667 0.005315625 0.136752
15 1 -0.036028125 -0.00261666666667 0.006496875 0.062678
16 1 -0.036028125 -0.00261666666667 0.007678125 0.0238095
17 1 -0.036028125 -0.00125 -0.007678125 0.0001
18 1 -0.036028125 -0.00125 -0.006496875 0.099715
19 1 -0.036028125 -0.00125 -0.005315625 0.0498575
20 1 -0.036028125 -0.00125 -0.004134375 0.0001
21 1 -0.036028125 -0.00125 -0.002953125 0.0001
22 1 -0.036028125 -0.00125 -0.001771875 0.111111
23 1 -0.036028125 -0.00125 -0.000590625 0.180952
24 1 -0.036028125 -0.00125 0.000590625 0.0692911
25 1 -0.036028125 -0.00125 0.001771875 0.0001
26 1 -0.036028125 -0.00125 0.002953125 0.0001
27 1 -0.036028125 -0.00125 0.004134375 0.062678
28 1 -0.036028125 -0.00125 0.005315625 0.136752
29 1 -0.036028125 -0.00125 0.006496875 0.062678
30 1 -0.036028125 -0.00125 0.007678125 0.0238095
31 1 -0.036028125 0.000116666666667 -0.007678125 0.0001
32 1 -0.036028125 0.000116666666667 -0.006496875 0.099715
33 1 -0.036028125 0.000116666666667 -0.005315625 0.0498575
34 1 -0.036028125 0.000116666666667 -0.004134375 0.0001
35 1 -0.036028125 0.000116666666667 -0.002953125 0.0001
36 1 -0.036028125 0.000116666666667 -0.001771875 0.111111
37 1 -0.036028125 0.000116666666667 -0.000590625 0.180952
38 1 -0.036028125 0.000116666666667 0.000590625 0.0692911
39 1 -0.036028125 0.000116666666667 0.001771875 0.0001
40 1 -0.036028125 0.000116666666667 0.002953125 0.0001
41 1 -0.036028125 0.000116666666667 0.004134375 0.062678
42 1 -0.036028125 0.000116666666667 0.005315625 0.136752
43 1 -0.036028125 0.000116666666667 0.006496875 0.062678
44 1 -0.036028125 0.000116666666667 0.007678125 0.0238095
45 1 -0.034846875 -0.00261666666667 -0.011221875 0.642857
46 1 -0.034846875 -0.00261666666667 -0.010040625 0.324786
47 1 -0.034846875 -0.00261666666667 -0.008859375 0.047619
48 1 -0.034846875 -0.00261666666667 -0.007678125 0.0001
49 1 -0.034846875 -0.00261666666667 -0.006496875 0.15812
50 1 -0.034846875 -0.00261666666667 -0.005315625 0.0954415
51 1 -0.034846875 -0.00261666666667 -0.004134375 0.0001
52 1 -0.034846875 -0.00261666666667 -0.002953125 0.0001
53 1 -0.034846875 -0.00261666666667 -0.001771875 0.11396
54 1 -0.034846875 -0.00261666666667 -0.000590625 0.323362
55 1 -0.034846875 -0.00261666666667 0.000590625 0.0954415
56 1 -0.034846875 -0.00261666666667 0.001771875 0.0001
57 1 -0.034846875 -0.00261666666667 0.002953125 0.0001
58 1 -0.034846875 -0.00261666666667 0.004134375 0.025641
59 1 -0.034846875 -0.00261666666667 0.005315625 0.051282
60 1 -0.034846875 -0.00261666666667 0.006496875 0.025641
61 1 -0.034846875 -0.00261666666667 0.007678125 0.087984
62 1 -0.034846875 -0.00261666666667 0.008859375 0.395238
63 1 -0.034846875 -0.00261666666667 0.010040625 0.424501
64 1 -0.034846875 -0.00261666666667 0.011221875 0.452381
65 1 -0.034846875 -0.00125 -0.011221875 0.642857
66 1 -0.034846875 -0.00125 -0.010040625 0.324786
67 1 -0.034846875 -0.00125 -0.008859375 0.047619
68 1 -0.034846875 -0.00125 -0.007678125 0.0001
69 1 -0.034846875 -0.00125 -0.006496875 0.15812
70 1 -0.034846875 -0.00125 -0.005315625 0.0954415
71 1 -0.034846875 -0.00125 -0.004134375 0.0001
72 1 -0.034846875 -0.00125 -0.002953125 0.0001
73 1 -0.034846875 -0.00125 -0.001771875 0.11396
74 1 -0.034846875 -0.00125 -0.000590625 0.323362
75 1 -0.034846875 -0.00125 0.000590625 0.0954415
76 1 -0.034846875 -0.00125 0.001771875 0.0001
77 1 -0.034846875 -0.00125 0.002953125 0.0001
78 1 -0.034846875 -0.00125 0.004134375 0.025641
79 1 -0.034846875 -0.00125 0.005315625 0.051282
80 1 -0.034846875 -0.00125 0.006496875 0.025641
81 1 -0.034846875 -0.00125 0.007678125 0.087984
82 1 -0.034846875 -0.00125 0.008859375 0.395238
83 1 -0.034846875 -0.00125 0.010040625 0.424501
84 1 -0.034846875 -0.00125 0.011221875 0.452381
85 1 -0.034846875 0.000116666666667 -0.011221875 0.642857
86 1 -0.034846875 0.000116666666667 -0.010040625 0.324786
87 1 -0.034846875 0.000116666666667 -0.008859375 0.047619
88 1 -0.034846875 0.000116666666667 -0.007678125 0.0001
89 1 -0.034846875 0.000116666666667 -0.006496875 0.15812
90 1 -0.034846875 0.000116666666667 -0.005315625 0.0954415
91 1 -0.034846875 0.000116666666667 -0.004134375 0.0001
92 1 -0.034846875 0.000116666666667 -0.002953125 0.0001
93 1 -0.034846875 0.000116666666667 -0.001771875 0.11396
94 1 -0.034846875 0.000116666666667 -0.000590625 0.323362
95 1 -0.034846875 0.000116666666667 0.000590625 0.0954415
96 1 -0.034846875 0.000116666666667 0.001771875 0.0001
97 1 -0.034846875 0.000116666666667 0.002953125 0.0001
98 1 -0.034846875 0.000116666666667 0.004134375 0.025641
99 1 -0.034846875 0.000116666666667 0.005315625 0.051282
100 1 -0.034846875 0.000116666666667 0.006496875 0.025641
101 1 -0.034846875 0.000116666666667 0.007678125 0.087984
102 1 -0.034846875 0.000116666666667 0.008859375 0.395238
103 1 -0.034846875 0.000116666666667 0.010040625 0.424501
104 1 -0.034846875 0.000116666666667 0.011221875 0.452381
105 1 -0.033665625 -0.00261666666667 -0.013584375 0.493172
106 1 -0.033665625 -0.00261666666667 -0.012403125 0.336559
107 1 -0.033665625 -0.00261666666667 -0.011221875 0.543552
108 1 -0.033665625 -0.00261666666667 -0.010040625 0.44302
109 1 -0.033665625 -0.00261666666667 -0.008859375 0.2151
110 1 -0.033665625 -0.00261666666667 -0.007678125 0.27208
111 1 -0.033665625 -0.00261666666667 -0.006496875 0.459402
112 1 -0.033665625 -0.00261666666667 -0.005315625 0.321581
113 1 -0.033665625 -0.00261666666667 -0.004134375 0.161681
114 1 -0.033665625 -0.00261666666667 -0.002953125 0.15812
115 1 -0.033665625 -0.00261666666667 -0.001771875 0.336182
116 1 -0.033665625 -0.00261666666667 -0.000590625 0.380342
117 1 -0.033665625 -0.00261666666667 0.000590625 0.146011
118 1 -0.033665625 -0.00261666666667 0.001771875 0.17094
119 1 -0.033665625 -0.00261666666667 0.002953125 0.11396
120 1 -0.033665625 -0.00261666666667 0.004134375 0.0569801
121 1 -0.033665625 -0.00261666666667 0.005315625 0.108262
122 1 -0.033665625 -0.00261666666667 0.006496875 0.133903
123 1 -0.033665625 -0.00261666666667 0.007678125 0.295299
124 1 -0.033665625 -0.00261666666667 0.008859375 0.45584
125 1 -0.033665625 -0.00261666666667 0.010040625 0.576923
126 1 -0.033665625 -0.00261666666667 0.011221875 0.415033
127 1 -0.033665625 -0.00261666666667 0.012403125 0.114286
128 1 -0.033665625 -0.00261666666667 0.013584375 0.0001
129 1 -0.033665625 -0.00125 -0.013584375 0.493172
130 1 -0.033665625 -0.00125 -0.012403125 0.336559
131 1 -0.033665625 -0.00125 -0.011221875 0.543552
132 1 -0.033665625 -0.00125 -0.010040625 0.44302
133 1 -0.033665625 -0.00125 -0.008859375 0.2151
134 1 -0.033665625 -0.00125 -0.007678125 0.27208
135 1 -0.033665625 -0.00125 -0.006496875 0.459402
136 1 -0.033665625 -0.00125 -0.005315625 0.321581
137 1 -0.033665625 -0.00125 -0.004134375 0.161681
138 1 -0.033665625 -0.00125 -0.002953125 0.15812
139 1 -0.033665625 -0.00125 -0.001771875 0.336182
140 1 -0.033665625 -0.00125 -0.000590625 0.380342
141 1 -0.033665625 -0.00125 0.000590625 0.146011
142 1 -0.033665625 -0.00125 0.001771875 0.17094
143 1 -0.033665625 -0.00125 0.002953125 0.11396
144 1 -0.033665625 -0.00125 0.004134375 0.0569801
145 1 -0.033665625 -0.00125 0.005315625 0.108262
146 1 -0.033665625 -0.00125 0.006496875 0.133903
147 1 -0.033665625 -0.00125 0.007678125 0.295299
148 1 -0.033665625 -0.00125 0.008859375 0.45584
149 1 -0.033665625 -0.00125 0.010040625 0.576923
150 1 -0.033665625 -0.00125 0.011221875 0.415033
151 1 -0.033665625 -0.00125 0.012403125 0.114286
152 1 -0.033665625 -0.00125 0.013584375 0.0001
153 1 -0.033665625 0.000116666666667 -0.013584375 0.493172
154 1 -0.033665625 0.000116666666667 -0.012403125 0.336559
155 1 -0.033665625 0.000116666666667 -0.011221875 0.543552
156 1 -0.033665625 0.000116666666667 -0.010040625 0.44302
157 1 -0.033665625 0.000116666666667 -0.008859375 0.2151
158 1 -0.033665625 0.000116666666667 -0.007678125 0.27208
159 1 -0.033665625 0.000116666666667 -0.006496875 0.459402
160 1 -0.033665625 0.000116666666667 -0.005315625 0.321581
161 1 -0.033665625 0.000116666666667 -0.004134375 0.161681
162 1 -0.033665625 0.000116666666667 -0.002953125 0.15812
163 1 -0.033665625 0.000116666666667 -0.001771875 0.336182
164 1 -0.033665625 0.000116666666667 -0.000590625 0.380342
165 1 -0.033665625 0.000116666666667 0.000590625 0.146011
166 1 -0.033665625 0.000116666666667 0.001771875 0.17094
167 1 -0.033665625 0.000116666666667 0.002953125 0.11396
168 1 -0.033665625 0.000116666666667 0.004134375 0.0569801
169 1 -0.033665625 0.000116666666667 0.005315625 0.108262
170 1 -0.033665625 0.000116666666667 0.006496875 0.133903
171 1 -0.033665625 0.000116666666667 0.007678125 0.295299
172 1 -0.033665625 0.000116666666667 0.008859375 0.45584
173 1 -0.033665625 0.000116666666667 0.010040625 0.576923
174 1 -0.033665625 0.000116666666667 0.011221875 0.415033
175 1 -0.033665625 0.000116666666667 0.012403125 0.114286
176 1 -0.033665625 0.000116666666667 0.013584375 0.0001
177 1 -0.032484375 -0.00261666666667 -0.018309375 0.595238
178 1 -0.032484375 -0.00261666666667 -0.017128125 0.671429
179 1 -0.032484375 -0.00261666666667 -0.015946875 0.632353
180 1 -0.032484375 -0.00261666666667 -0.014765625 0.451567
181 1 -0.032484375 -0.00261666666667 -0.013584375 0.316239
182 1 -0.032484375 -0.00261666666667 -0.012403125 0.295584
183 1 -0.032484375 -0.00261666666667 -0.011221875 0.378917
184 1 -0.032484375 -0.00261666666667 -0.010040625 0.334758
185 1 -0.032484375 -0.00261666666667 -0.008859375 0.61396
186 1 -0.032484375 -0.00261666666667 -0.007678125 0.639601
187 1 -0.032484375 -0.00261666666667 -0.006496875 0.391737
188 1 -0.032484375 -0.00261666666667 -0.005315625 0.679487
189 1 -0.032484375 -0.00261666666667 -0.004134375 0.397436
190 1 -0.032484375 -0.00261666666667 -0.002953125 0.507122
191 1 -0.032484375 -0.00261666666667 -0.001771875 0.569801
192 1 -0.032484375 -0.00261666666667 -0.000590625 0.45584
193 1 -0.032484375 -0.00261666666667 0.000590625 0.405983
194 1 -0.032484375 -0.00261666666667 0.001771875 0.632479
195 1 -0.032484375 -0.00261666666667 0.002953125 0.397436
196 1 -0.032484375 -0.00261666666667 0.004134375 0.260684
197 1 -0.032484375 -0.00261666666667 0.005315625 0.290598
198 1 -0.032484375 -0.00261666666667 0.006496875 0.481481
199 1 -0.032484375 -0.00261666666667 0.007678125 0.646902
200 1 -0.032484375 -0.00261666666667 0.008859375 0.36396
201 1 -0.032484375 -0.00261666666667 0.010040625 0.404558
202 1 -0.032484375 -0.00261666666667 0.011221875 0.14886
203 1 -0.032484375 -0.00261666666667 0.012403125 0.0477208
204 1 -0.032484375 -0.00261666666667 0.013584375 0.00641026
205 1 -0.032484375 -0.00261666666667 0.014765625 0.0001
206 1 -0.032484375 -0.00261666666667 0.015946875 0.0001
207 1 -0.032484375 -0.00261666666667 0.017128125 0.0001
208 1 -0.032484375 -0.00261666666667 0.018309375 0.0001
209 1 -0.032484375 -0.00125 -0.018309375 0.595238
210 1 -0.032484375 -0.00125 -0.017128125 0.671429
211 1 -0.032484375 -0.00125 -0.015946875 0.632353
212 1 -0.032484375 -0.00125 -0.014765625 0.451567
213 1 -0.032484375 -0.00125 -0.013584375 0.316239
214 1 -0.032484375 -0.00125 -0.012403125 0.295584
215 1 -0.032484375 -0.00125 -0.011221875 0.378917
216 1 -0.032484375 -0.00125 -0.010040625 0.334758
217 1 -0.032484375 -0.00125 -0.008859375 0.61396
218 1 -0.032484375 -0.00125 -0.007678125 0.639601
219 1 -0.032484375 -0.00125 -0.006496875 0.391737
220 1 -0.032484375 -0.00125 -0.005315625 0.679487
221 1 -0.032484375 -0.00125 -0.004134375 0.397436
222 1 -0.032484375 -0.00125 -0.002953125 0.507122
223 1 -0.032484375 -0.00125 -0.001771875 0.569801
224 1 -0.032484375 -0.00125 -0.000590625 0.45584
225 1 -0.032484375 -0.00125 0.000590625 0.405983
226 1 -0.032484375 -0.00125 0.001771875 0.632479
227 1 -0.032484375 -0.00125 0.002953125 0.397436
228 1 -0.032484375 -0.00125 0.004134375 0.260684
229 1 -0.032484375 -0.00125 0.005315625 0.290598
230 1 -0.032484375 -0.00125 0.006496875 0.481481
231 1 -0.032484375 -0.00125 0.007678125 0.646902
232 1 -0.032484375 -0.00125 0.008859375 0.36396
233 1 -0.032484375 -0.00125 0.010040625 0.404558
234 1 -0.032484375 -0.00125 0.011221875 0.14886
235 1 -0.032484375 -0.00125 0.012403125 0.0477208
236 1 -0.032484375 -0.00125 0.013584375 0.00641026
237 1 -0.032484375 -0.00125 0.014765625 0.0001
238 1 -0.032484375 -0.00125 0.015946875 0.0001
239 1 -0.032484375 -0.00125 0.017128125 0.0001
240 1 -0.032484375 -0.00125 0.018309375 0.0001
241 1 -0.032484375 0.000116666666667 -0.018309375 0.595238
242 1 -0.032484375 0.000116666666667 -0.017128125 0.671429
243 1 -0.032484375 0.000116666666667 -0.015946875 0.632353
244 1 -0.032484375 0.000116666666667 -0.014765625 0.451567
245 1 -0.032484375 0.000116666666667 -0.013584375 0.316239
246 1 -0.032484375 0.000116666666667 -0.012403125 0.295584
247 1 -0.032484375 0.000116666666667 -0.011221875 0.378917
248 1 -0.032484375 0.000116666666667 -0.010040625 0.334758
249 1 -0.032484375 0.000116666666667 -0.008859375 0.61396
250 1 -0.032484375 0.000116666666667 -0.007678125 0.639601
251 1 -0.032484375 0.000116666666667 -0.006496875 0.391737
252 1 -0.032484375 0.000116666666667 -0.005315625 0.679487
253 1 -0.032484375 0.000116666666667 -0.004134375 0.397436
254 1 -0.032484375 0.000116666666667 -0.002953125 0.507122
255 1 -0.032484375 0.000116666666667 -0.001771875 0.569801
256 1 -0.032484375 0.000116666666667 -0.000590625 0.45584
257 1 -0.032484375 0.000116666666667 0.000590625 0.405983
258 1 -0.032484375 0.000116666666667 0.001771875 0.632479
259 1 -0.032484375 0.000116666666667 0.002953125 0.397436
260 1 -0.032484375 0.000116666666667 0.004134375 0.260684
261 1 -0.032484375 0.000116666666667 0.005315625 0.290598
262 1 -0.032484375 0.000116666666667 0.006496875 0.481481
263 1 -0.032484375 0.000116666666667 0.007678125 0.646902
264 1 -0.032484375 0.000116666666667 0.008859375 0.36396
265 1 -0.032484375 0.000116666666667 0.010040625 0.404558
266 1 -0.032484375 0.000116666666667 0.011221875 0.14886
267 1 -0.032484375 0.000116666666667 0.012403125 0.0477208
268 1 -0.032484375 0.000116666666667 0.013584375 0.00641026
269 1 -0.032484375 0.000116666666667 0.014765625 0.0001
270 1 -0.032484375 0.000116666666667 0.015946875 0.0001
271 1 -0.032484375 0.000116666666667 0.017128125 0.0001
272 1 -0.032484375 0.000116666666667 0.018309375 0.0001
273 1 -0.031303125 -0.00261666666667 -0.019490625 0.809524
274 1 -0.031303125 -0.00261666666667 -0.018309375 0.754902
275 1 -0.031303125 -0.00261666666667 -0.017128125 0.849003
276 1 -0.031303125 -0.00261666666667 -0.015946875 0.779202
277 1 -0.031303125 -0.00261666666667 -0.014765625 0.569801
278 1 -0.031303125 -0.00261666666667 -0.013584375 0.525641
279 1 -0.031303125 -0.00261666666667 -0.012403125 0.531339
280 1 -0.031303125 -0.00261666666667 -0.011221875 0.38604
281 1 -0.031303125 -0.00261666666667 -0.010040625 0.462963
282 1 -0.031303125 -0.00261666666667 -0.008859375 0.683761
283 1 -0.031303125 -0.00261666666667 -0.007678125 0.639601
284 1 -0.031303125 -0.00261666666667 -0.006496875 0.549857
285 1 -0.031303125 -0.00261666666667 -0.005315625 0.444444
286 1 -0.031303125 -0.00261666666667 -0.004134375 0.22792
287 1 -0.031303125 -0.00261666666667 -0.002953125 0.246439
288 1 -0.031303125 -0.00261666666667 -0.001771875 0.253561
289 1 -0.031303125 -0.00261666666667 -0.000590625 0.209402
290 1 -0.031303125 -0.00261666666667 0.000590625 0.402422
291 1 -0.031303125 -0.00261666666667 0.001771875 0.507122
292 1 -0.031303125 -0.00261666666667 0.002953125 0.437322
293 1 -0.031303125 -0.00261666666667 0.004134375 0.437322
294 1 -0.031303125 -0.00261666666667 0.005315625 0.569801
295 1 -0.031303125 -0.00261666666667 0.006496875 0.65812
296 1 -0.031303125 -0.00261666666667 0.007678125 0.389601
297 1 -0.031303125 -0.00261666666667 0.008859375 0.0954416
298 1 -0.031303125 -0.00261666666667 0.010040625 0.0954416
299 1 -0.031303125 -0.00261666666667 0.011221875 0.139601
300 1 -0.031303125 -0.00261666666667 0.012403125 0.139601
301 1 -0.031303125 -0.00261666666667 0.013584375 0.0954415
302 1 -0.031303125 -0.00261666666667 0.014765625 0.121083
303 1 -0.031303125 -0.00261666666667 0.015946875 0.0512821
304 1 -0.031303125 -0.00261666666667 0.017128125 0.025641
305 1 -0.031303125 -0.00261666666667 0.018309375 0.0001
306 1 -0.031303125 -0.00261666666667 0.019490625 0.0001
307 1 -0.031303125 -0.00125 -0.019490625 0.809524
308 1 -0.031303125 -0.00125 -0.018309375 0.754902
309 1 -0.031303125 -0.00125 -0.017128125 0.849003
310 1 -0.031303125 -0.00125 -0.015946875 0.779202
311 1 -0.031303125 -0.00125 -0.014765625 0.569801
312 1 -0.031303125 -0.00125 -0.013584375 0.525641
313 1 -0.031303125 -0.00125 -0.012403125 0.531339
314 1 -0.031303125 -0.00125 -0.011221875 0.38604
315 1 -0.031303125 -0.00125 -0.010040625 0.462963
316 1 -0.031303125 -0.00125 -0.008859375 0.683761
317 1 -0.031303125 -0.00125 -0.007678125 0.639601
318 1 -0.031303125 -0.00125 -0.006496875 0.549857
319 1 -0.031303125 -0.00125 -0.005315625 0.444444
320 1 -0.031303125 -0.00125 -0.004134375 0.22792
321 1 -0.031303125 -0.00125 -0.002953125 0.246439
322 1 -0.031303125 -0.00125 -0.001771875 0.253561
323 1 -0.031303125 -0.00125 -0.000590625 0.209402
324 1 -0.031303125 -0.00125 0.000590625 0.402422
325 1 -0.031303125 -0.00125 0.001771875 0.507122
326 1 -0.031303125 -0.00125 0.002953125 0.437322
327 1 -0.031303125 -0.00125 0.004134375 0.437322
328 1 -0.031303125 -0.00125 0.005315625 0.569801
329 1 -0.031303125 -0.00125 0.006496875 0.65812
330 1 -0.031303125 -0.00125 0.007678125 0.389601
331 1 -0.031303125 -0.00125 0.008859375 0.0954416
332 1 -0.031303125 -0.00125 0.010040625 0.0954416
333 1 -0.031303125 -0.00125 0.011221875 0.139601
334 1 -0.031303125 -0.00125 0.012403125 0.139601
335 1 -0.031303125 -0.00125 0.013584375 0.0954415
336 1 -0.031303125 -0.00125 0.014765625 0.121083
337 1 -0.031303125 -0.00125 0.015946875 0.0512821
338 1 -0.031303125 -0.00125 0.017128125 0.025641
339 1 -0.031303125 -0.00125 0.018309375 0.0001
340 1 -0.031303125 -0.00125 0.019490625 0.0001
341 1 -0.031303125 0.000116666666667 -0.019490625 0.809524
342 1 -0.031303125 0.000116666666667 -0.018309375 0.754902
343 1 -0.031303125 0.000116666666667 -0.017128125 0.849003
344 1 -0.031303125 0.000116666666667 -0.015946875 0.779202
345 1 -0.031303125 0.000116666666667 -0.014765625 0.569801
346 1 -0.031303125 0.000116666666667 -0.013584375 0.525641
347 1 -0.031303125 0.000116666666667 -0.012403125 0.531339
348 1 -0.031303125 0.000116666666667 -0.011221875 0.38604
349 1 -0.031303125 0.000116666666667 -0.010040625 0.462963
350 1 -0.031303125 0.000116666666667 -0.008859375 0.683761
351 1 -0.031303125 0.000116666666667 -0.007678125 0.639601
352 1 -0.031303125 0.000116666666667 -0.006496875 0.549857
353 1 -0.031303125 0.000116666666667 -0.005315625 0.444444
354 1 -0.031303125 0.000116666666667 -0.004134375 0.22792
355 1 -0.031303125 0.000116666666667 -0.002953125 0.246439
356 1 -0.031303125 0.000116666666667 -0.001771875 0.253561
357 1 -0.031303125 0.000116666666667 -0.000590625 0.209402
358 1 -0.031303125 0.000116666666667 0.000590625 0.402422
359 1 -0.031303125 0.000116666666667 0.001771875 0.507122
360 1 -0.031303125 0.000116666666667 0.002953125 0.437322
361 1 -0.031303125 0.000116666666667 0.004134375 0.437322
362 1 -0.031303125 0.000116666666667 0.005315625 0.569801
363 1 -0.031303125 0.000116666666667 0.006496875 0.65812
364 1 -0.031303125 0.000116666666667 0.007678125 0.389601
365 1 -0.031303125 0.000116666666667 0.008859375 0.0954416
366 1 -0.031303125 0.000116666666667 0.010040625 0.0954416
367 1 -0.031303125 0.000116666666667 0.011221875 0.139601
368 1 -0.031303125 0.000116666666667 0.012403125 0.139601
369 1 -0.031303125 0.000116666666667 0.013584375 0.0954415
370 1 -0.031303125 0.000116666666667 0.014765625 0.121083
371 1 -0.031303125 0.000116666666667 0.015946875 0.0512821
372 1 -0.031303125 0.000116666666667 0.017128125 0.025641
373 1 -0.031303125 0.000116666666667 0.018309375 0.0001
374 1 -0.031303125 0.000116666666667 0.019490625 0.0001
375 1 -0.030121875 -0.00261666666667 -0.020671875 0.742424
376 1 -0.030121875 -0.00261666666667 -0.019490625 0.713612
377 1 -0.030121875 -0.00261666666667 -0.018309375 0.713675
378 1 -0.030121875 -0.00261666666667 -0.017128125 0.735043
379 1 -0.030121875 -0.00261666666667 -0.015946875 0.639601
380 1 -0.030121875 -0.00261666666667 -0.014765625 0.569801
381 1 -0.030121875 -0.00261666666667 -0.013584375 0.606838
382 1 -0.030121875 -0.00261666666667 -0.012403125 0.490741
383 1 -0.030121875 -0.00261666666667 -0.011221875 0.349003
384 1 -0.030121875 -0.00261666666667 -0.010040625 0.576923
385 1 -0.030121875 -0.00261666666667 -0.008859375 0.720798
386 1 -0.030121875 -0.00261666666667 -0.007678125 0.676638
387 1 -0.030121875 -0.00261666666667 -0.006496875 0.696581
388 1 -0.030121875 -0.00261666666667 -0.005315625 0.27208
389 1 -0.030121875 -0.00261666666667 -0.004134375 0.0698005
390 1 -0.030121875 -0.00261666666667 -0.002953125 0.0954416
391 1 -0.030121875 -0.00261666666667 -0.001771875 0.209402
392 1 -0.030121875 -0.00261666666667 -0.000590625 0.304843
393 1 -0.030121875 -0.00261666666667 0.000590625 0.54416
394 1 -0.030121875 -0.00261666666667 0.001771875 0.639601
395 1 -0.030121875 -0.00261666666667 0.002953125 0.606838
396 1 -0.030121875 -0.00261666666667 0.004134375 0.65812
397 1 -0.030121875 -0.00261666666667 0.005315625 0.628205
398 1 -0.030121875 -0.00261666666667 0.006496875 0.581197
399 1 -0.030121875 -0.00261666666667 0.007678125 0.244302
400 1 -0.030121875 -0.00261666666667 0.008859375 0.076923
401 1 -0.030121875 -0.00261666666667 0.010040625 0.102564
402 1 -0.030121875 -0.00261666666667 0.011221875 0.249288
403 1 -0.030121875 -0.00261666666667 0.012403125 0.190883
404 1 -0.030121875 -0.00261666666667 0.013584375 0.15812
405 1 -0.030121875 -0.00261666666667 0.014765625 0.297721
406 1 -0.030121875 -0.00261666666667 0.015946875 0.393162
407 1 -0.030121875 -0.00261666666667 0.017128125 0.139601
408 1 -0.030121875 -0.00261666666667 0.018309375 0.11396
409 1 -0.030121875 -0.00261666666667 0.019490625 0.0698005
410 1 -0.030121875 -0.00261666666667 0.020671875 0.0138889
411 1 -0.030121875 -0.00125 -0.020671875 0.742424
412 1 -0.030121875 -0.00125 -0.019490625 0.713612
413 1 -0.030121875 -0.00125 -0.018309375 0.713675
414 1 -0.030121875 -0.00125 -0.017128125 0.735043
415 1 -0.030121875 -0.00125 -0.015946875 0.639601
416 1 -0.030121875 -0.00125 -0.014765625 0.569801
417 1 -0.030121875 -0.00125 -0.013584375 0.606838
418 1 -0.030121875 -0.00125 -0.012403125 0.490741
419 1 -0.030121875 -0.00125 -0.011221875 0.349003
420 1 -0.030121875 -0.00125 -0.010040625 0.576923
421 1 -0.030121875 -0.00125 -0.008859375 0.720798
422 1 -0.030121875 -0.00125 -0.007678125 0.676638
423 1 -0.030121875 -0.00125 -0.006496875 0.696581
424 1 -0.030121875 -0.00125 -0.005315625 0.27208
425 1 -0.030121875 -0.00125 -0.004134375 0.0698005
426 1 -0.030121875 -0.00125 -0.002953125 0.0954416
427 1 -0.030121875 -0.00125 -0.001771875 0.209402
428 1 -0.030121875 -0.00125 -0.000590625 0.304843
429 1 -0.030121875 -0.00125 0.000590625 0.54416
430 1 -0.030121875 -0.00125 0.001771875 0.639601
431 1 -0.030121875 -0.00125 0.002953125 0.606838
432 1 -0.030121875 -0.00125 0.004134375 0.65812
433 1 -0.030121875 -0.00125 0.005315625 0.628205
434 1 -0.030121875 -0.00125 0.006496875 0.581197
435 1 -0.030121875 -0.00125 0.007678125 0.244302
436 1 -0.030121875 -0.00125 0.008859375 0.076923
437 1 -0.030121875 -0.00125 0.010040625 0.102564
438 1 -0.030121875 -0.00125 0.011221875 0.249288
439 1 -0.030121875 -0.00125 0.012403125 0.190883
440 1 -0.030121875 -0.00125 0.013584375 0.15812
441 1 -0.030121875 -0.00125 0.014765625 0.297721
442 1 -0.030121875 -0.00125 0.015946875 0.393162
443 1 -0.030121875 -0.00125 0.017128125 0.139601
444 1 -0.030121875 -0.00125 0.018309375 0.11396
445 1 -0.030121875 -0.00125 0.019490625 0.0698005
446 1 -0.030121875 -0.00125 0.020671875 0.0138889
447 1 -0.030121875 0.000116666666667 -0.020671875 0.742424
448 1 -0.030121875 0.000116666666667 -0.019490625 0.713612
449 1 -0.030121875 0.000116666666667 -0.018309375 0.713675
450 1 -0.030121875 0.000116666666667 -0.017128125 0.735043
451 1 -0.030121875 0.000116666666667 -0.015946875 0.639601
452 1 -0.030121875 0.000116666666667 -0.014765625 0.569801
453 1 -0.030121875 0.000116666666667 -0.013584375 0.606838
454 1 -0.030121875 0.000116666666667 -0.012403125 0.490741
455 1 -0.030121875 0.000116666666667 -0.011221875 0.349003
456 1 -0.030121875 0.000116666666667 -0.010040625 0.576923
457 1 -0.030121875 0.000116666666667 -0.008859375 0.720798
458 1 -0.030121875 0.000116666666667 -0.007678125 0.676638
459 1 -0.030121875 0.000116666666667 -0.006496875 0.696581
460 1 -0.030121875 0.000116666666667 -0.005315625 0.27208
461 1 -0.030121875 0.000116666666667 -0.004134375 0.0698005
462 1 -0.030121875 0.000116666666667 -0.002953125 0.0954416
463 1 -0.030121875 0.000116666666667 -0.001771875 0.209402
464 1 -0.030121875 0.000116666666667 -0.000590625 0.304843
465 1 -0.030121875 0.000116666666667 0.000590625 0.54416
466 1 -0.030121875 0.000116666666667 0.001771875 0.639601
467 1 -0.030121875 0.000116666666667 0.002953125 0.606838
468 1 -0.030121875 0.000116666666667 0.004134375 0.65812
469 1 -0.030121875 0.000116666666667 0.005315625 0.628205
470 1 -0.030121875 0.000116666666667 0.006496875 0.581197
471 1 -0.030121875 0.000116666666667 0.007678125 0.244302
472 1 -0.030121875 0.000116666666667 0.008859375 0.076923
473 1 -0.030121875 0.000116666666667 0.010040625 0.102564
474 1 -0.030121875 0.000116666666667 0.011221875 0.249288
475 1 -0.030121875 0.000116666666667 0.012403125 0.190883
476 1 -0.030121875 0.000116666666667 0.013584375 0.15812
477 1 -0.030121875 0.000116666666667 0.014765625 0.297721
478 1 -0.030121875 0.000116666666667 0.015946875 0.393162
479 1 -0.030121875 0.000116666666667 0.017128125 0.139601
480 1 -0.030121875 0.000116666666667 0.018309375 0.11396
481 1 -0.030121875 0.000116666666667 0.019490625 0.0698005
482 1 -0.030121875 0.000116666666667 0.020671875 0.0138889
483 1 -0.028940625 -0.00261666666667 -0.021853125 0.556818
484 1 -0.028940625 -0.00261666666667 -0.020671875 0.379085
485 1 -0.028940625 -0.00261666666667 -0.019490625 0.529202
486 1 -0.028940625 -0.00261666666667 -0.018309375 0.625356
487 1 -0.028940625 -0.00261666666667 -0.017128125 0.65812
488 1 -0.028940625 -0.00261666666667 -0.015946875 0.809117
489 1 -0.028940625 -0.00261666666667 -0.014765625 0.764957
490 1 -0.028940625 -0.00261666666667 -0.013584375 0.683761
491 1 -0.028940625 -0.00261666666667 -0.012403125 0.654559
492 1 -0.028940625 -0.00261666666667 -0.011221875 0.448718
493 1 -0.028940625 -0.00261666666667 -0.010040625 0.713675
494 1 -0.028940625 -0.00261666666667 -0.008859375 0.695157
495 1 -0.028940625 -0.00261666666667 -0.007678125 0.764957
496 1 -0.028940625 -0.00261666666667 -0.006496875 0.453703
497 1 -0.028940625 -0.00261666666667 -0.005315625 0.209402
498 1 -0.028940625 -0.00261666666667 -0.004134375 0.132479
499 1 -0.028940625 -0.00261666666667 -0.002953125 0.121083
500 1 -0.028940625 -0.00261666666667 -0.001771875 0.279202
501 1 -0.028940625 -0.00261666666667 -0.000590625 0.467236
502 1 -0.028940625 -0.00261666666667 0.000590625 0.549858
503 1 -0.028940625 -0.00261666666667 0.001771875 0.481481
504 1 -0.028940625 -0.00261666666667 0.002953125 0.367521
505 1 -0.028940625 -0.00261666666667 0.004134375 0.562678
506 1 -0.028940625 -0.00261666666667 0.005315625 0.72792
507 1 -0.028940625 -0.00261666666667 0.006496875 0.423077
508 1 -0.028940625 -0.00261666666667 0.007678125 0.161681
509 1 -0.028940625 -0.00261666666667 0.008859375 0.0698006
510 1 -0.028940625 -0.00261666666667 0.010040625 0.121083
511 1 -0.028940625 -0.00261666666667 0.011221875 0.139601
512 1 -0.028940625 -0.00261666666667 0.012403125 0.183761
513 1 -0.028940625 -0.00261666666667 0.013584375 0.117521
514 1 -0.028940625 -0.00261666666667 0.014765625 0.165242
515 1 -0.028940625 -0.00261666666667 0.015946875 0.297721
516 1 -0.028940625 -0.00261666666667 0.017128125 0.437322
517 1 -0.028940625 -0.00261666666667 0.018309375 0.367521
518 1 -0.028940625 -0.00261666666667 0.019490625 0.235043
519 1 -0.028940625 -0.00261666666667 0.020671875 0.197314
520 1 -0.028940625 -0.00261666666667 0.021853125 0.155303
521 1 -0.028940625 -0.00125 -0.021853125 0.556818
522 1 -0.028940625 -0.00125 -0.020671875 0.379085
523 1 -0.028940625 -0.00125 -0.019490625 0.529202
524 1 -0.028940625 -0.00125 -0.018309375 0.625356
525 1 -0.028940625 -0.00125 -0.017128125 0.65812
526 1 -0.028940625 -0.00125 -0.015946875 0.809117
527 1 -0.028940625 -0.00125 -0.014765625 0.764957
528 1 -0.028940625 -0.00125 -0.013584375 0.683761
529 1 -0.028940625 -0.00125 -0.012403125 0.654559
530 1 -0.028940625 -0.00125 -0.011221875 0.448718
531 1 -0.028940625 -0.00125 -0.010040625 0.713675
532 1 -0.028940625 -0.00125 -0.008859375 0.695157
533 1 -0.028940625 -0.00125 -0.007678125 0.764957
534 1 -0.028940625 -0.00125 -0.006496875 0.453703
535 1 -0.028940625 -0.00125 -0.005315625 0.209402
536 1 -0.028940625 -0.00125 -0.004134375 0.132479
537 1 -0.028940625 -0.00125 -0.002953125 0.121083
538 1 -0.028940625 -0.00125 -0.001771875 0.279202
539 1 -0.028940625 -0.00125 -0.000590625 0.467236