ITEM: TIMESTEP
0
ITEM: NUMBER OF ATOMS
9240
ITEM: BOX BOUNDS ss ss ss
-3.7007399999999996e-02 3.7007399999999996e-02
-2.0002499999999999e-03 2.5000000000000004e-07
-3.7007399999999996e-02 3.7007399999999996e-02
ITEM: ATOMS id type x y z c_1
0 1 -0.037209375 -0.00261666666667 -0.000590625 0.361905
1 1 -0.037209375 -0.00125 -0.000590625 0.361905
2 1 -0.037209375 0.000116666666667 -0.000590625 0.361905
3 1 -0.036028125 -0.00261666666667 -0.007678125 0.510114
4 1 -0.036028125 -0.00261666666667 -0.006496875 0.324786
5 1 -0.036028125 -0.00261666666667 -0.005315625 0.136752
6 1 -0.036028125 -0.00261666666667 -0.004134375 0.287749
7 1 -0.036028125 -0.00261666666667 -0.002953125 0.136752
8 1 -0.036028125 -0.00261666666667 -0.001771875 0.099715
9 1 -0.036028125 -0.00261666666667 -0.000590625 0.0755682
10 1 -0.036028125 -0.00261666666667 0.000590625 0.147619
11 1 -0.036028125 -0.00261666666667 0.001771875 0.361823
12 1 -0.036028125 -0.00261666666667 0.002953125 0.262108
13 1 -0.036028125 -0.00261666666667 0.004134375 0.236467
14 1 -0.036028125 -0.00261666666667 0.005315625 0.387464
15 1 -0.036028125 -0.00261666666667 0.006496875 0.099715
16 1 -0.036028125 -0.00261666666667 0.007678125 0.128571
17 1 -0.036028125 -0.00125 -0.007678125 0.510114
18 1 -0.036028125 -0.00125 -0.006496875 0.324786
19 1 -0.036028125 -0.00125 -0.005315625 0.136752
20 1 -0.036028125 -0.00125 -0.004134375 0.287749
21 1 -0.036028125 -0.00125 -0.002953125 0.136752
22 1 -0.036028125 -0.00125 -0.001771875 0.099715
23 1 -0.036028125 -0.00125 -0.000590625 0.0755682
24 1 -0.036028125 -0.00125 0.000590625 0.147619
25 1 -0.036028125 -0.00125 0.001771875 0.361823
26 1 -0.036028125 -0.00125 0.002953125 0.262108
27 1 -0.036028125 -0.00125 0.004134375 0.236467
28 1 -0.036028125 -0.00125 0.005315625 0.387464
29 1 -0.036028125 -0.00125 0.006496875 0.099715
30 1 -0.036028125 -0.00125 0.007678125 0.128571
31 1 -0.036028125 0.000116666666667 -0.007678125 0.510114
32 1 -0.036028125 0.000116666666667 -0.006496875 0.324786
33 1 -0.036028125 0.000116666666667 -0.005315625 0.136752
34 1 -0.036028125 0.000116666666667 -0.004134375 0.287749
35 1 -0.036028125 0.000116666666667 -0.002953125 0.136752
36 1 -0.036028125 0.000116666666667 -0.001771875 0.099715
37 1 -0.036028125 0.000116666666667 -0.000590625 0.0755682
38 1 -0.036028125 0.000116666666667 0.000590625 0.147619
39 1 -0.036028125 0.000116666666667 0.001771875 0.361823
40 1 -0.036028125 0.000116666666667 0.002953125 0.262108
41 1 -0.036028125 0.000116666666667 0.004134375 0.236467
42 1 -0.036028125 0.000116666666667 0.005315625 0.387464
43 1 -0.036028125 0.000116666666667 0.006496875 0.099715
44 1 -0.036028125 0.000116666666667 0.007678125 0.128571
45 1 -0.034846875 -0.00261666666667 -0.011221875 0.047619
46 1 -0.034846875 -0.00261666666667 -0.010040625 0.037037
47 1 -0.034846875 -0.00261666666667 -0.008859375 0.147619
48 1 -0.034846875 -0.00261666666667 -0.007678125 0.290808
49 1 -0.034846875 -0.00261666666667 -0.006496875 0.38604
50 1 -0.034846875 -0.00261666666667 -0.005315625 0.253561
51 1 -0.034846875 -0.00261666666667 -0.004134375 0.209402
52 1 -0.034846875 -0.00261666666667 -0.002953125 0.165242
53 1 -0.034846875 -0.00261666666667 -0.001771875 0.102564
54 1 -0.034846875 -0.00261666666667 -0.000590625 0.0220798
55 1 -0.034846875 -0.00261666666667 0.000590625 0.297721
56 1 -0.034846875 -0.00261666666667 0.001771875 0.297721
57 1 -0.034846875 -0.00261666666667 0.002953125 0.15812
58 1 -0.034846875 -0.00261666666667 0.004134375 0.190883
59 1 -0.034846875 -0.00261666666667 0.005315625 0.216524
60 1 -0.034846875 -0.00261666666667 0.006496875 0.11396
61 1 -0.034846875 -0.00261666666667 0.007678125 0.245098
62 1 -0.034846875 -0.00261666666667 0.008859375 0.361905
63 1 -0.034846875 -0.00261666666667 0.010040625 0.0001
64 1 -0.034846875 -0.00261666666667 0.011221875 0.128571
65 1 -0.034846875 -0.00125 -0.011221875 0.047619
66 1 -0.034846875 -0.00125 -0.010040625 0.037037
67 1 -0.034846875 -0.00125 -0.008859375 0.147619
68 1 -0.034846875 -0.00125 -0.007678125 0.290808
69 1 -0.034846875 -0.00125 -0.006496875 0.38604
70 1 -0.034846875 -0.00125 -0.005315625 0.253561
71 1 -0.034846875 -0.00125 -0.004134375 0.209402
72 1 -0.034846875 -0.00125 -0.002953125 0.165242
73 1 -0.034846875 -0.00125 -0.001771875 0.102564
74 1 -0.034846875 -0.00125 -0.000590625 0.0220798
75 1 -0.034846875 -0.00125 0.000590625 0.297721
76 1 -0.034846875 -0.00125 0.001771875 0.297721
77 1 -0.034846875 -0.00125 0.002953125 0.15812
78 1 -0.034846875 -0.00125 0.004134375 0.190883
79 1 -0.034846875 -0.00125 0.005315625 0.216524
80 1 -0.034846875 -0.00125 0.006496875 0.11396
81 1 -0.034846875 -0.00125 0.007678125 0.245098
82 1 -0.034846875 -0.00125 0.008859375 0.361905
83 1 -0.034846875 -0.00125 0.010040625 0.0001
84 1 -0.034846875 -0.00125 0.011221875 0.128571
85 1 -0.034846875 0.000116666666667 -0.011221875 0.047619
86 1 -0.034846875 0.000116666666667 -0.010040625 0.037037
87 1 -0.034846875 0.000116666666667 -0.008859375 0.147619
88 1 -0.034846875 0.000116666666667 -0.007678125 0.290808
89 1 -0.034846875 0.000116666666667 -0.006496875 0.38604
90 1 -0.034846875 0.000116666666667 -0.005315625 0.253561
91 1 -0.034846875 0.000116666666667 -0.004134375 0.209402
92 1 -0.034846875 0.000116666666667 -0.002953125 0.165242
93 1 -0.034846875 0.000116666666667 -0.001771875 0.102564
94 1 -0.034846875 0.000116666666667 -0.000590625 0.0220798
95 1 -0.034846875 0.000116666666667 0.000590625 0.297721
96 1 -0.034846875 0.000116666666667 0.001771875 0.297721
97 1 -0.034846875 0.000116666666667 0.002953125 0.15812
98 1 -0.034846875 0.000116666666667 0.004134375 0.190883
99 1 -0.034846875 0.000116666666667 0.005315625 0.216524
100 1 -0.034846875 0.000116666666667 0.006496875 0.11396
101 1 -0.034846875 0.000116666666667 0.007678125 0.245098
102 1 -0.034846875 0.000116666666667 0.008859375 0.361905
103 1 -0.034846875 0.000116666666667 0.010040625 0.0001
104 1 -0.034846875 0.000116666666667 0.011221875 0.128571
105 1 -0.033665625 -0.00261666666667 -0.013584375 0.111798
106 1 -0.033665625 -0.00261666666667 -0.012403125 0.452259
107 1 -0.033665625 -0.00261666666667 -0.011221875 0.310206
108 1 -0.033665625 -0.00261666666667 -0.010040625 0.196581
109 1 -0.033665625 -0.00261666666667 -0.008859375 0.17094
110 1 -0.033665625 -0.00261666666667 -0.007678125 0.175214
111 1 -0.033665625 -0.00261666666667 -0.006496875 0.379867
112 1 -0.033665625 -0.00261666666667 -0.005315625 0.325498
113 1 -0.033665625 -0.00261666666667 -0.004134375 0.405983
114 1 -0.033665625 -0.00261666666667 -0.002953125 0.45584
115 1 -0.033665625 -0.00261666666667 -0.001771875 0.332621
116 1 -0.033665625 -0.00261666666667 -0.000590625 0.283119
117 1 -0.033665625 -0.00261666666667 0.000590625 0.367521
118 1 -0.033665625 -0.00261666666667 0.001771875 0.42094
119 1 -0.033665625 -0.00261666666667 0.002953125 0.145299
120 1 -0.033665625 -0.00261666666667 0.004134375 0.244302
121 1 -0.033665625 -0.00261666666667 0.005315625 0.349003
122 1 -0.033665625 -0.00261666666667 0.006496875 0.321581
123 1 -0.033665625 -0.00261666666667 0.007678125 0.446581
124 1 -0.033665625 -0.00261666666667 0.008859375 0.13604
125 1 -0.033665625 -0.00261666666667 0.010040625 0.174501
126 1 -0.033665625 -0.00261666666667 0.011221875 0.411011
127 1 -0.033665625 -0.00261666666667 0.012403125 0.495503
128 1 -0.033665625 -0.00261666666667 0.013584375 0.200361
129 1 -0.033665625 -0.00125 -0.013584375 0.111798
130 1 -0.033665625 -0.00125 -0.012403125 0.452259
131 1 -0.033665625 -0.00125 -0.011221875 0.310206
132 1 -0.033665625 -0.00125 -0.010040625 0.196581
133 1 -0.033665625 -0.00125 -0.008859375 0.17094
134 1 -0.033665625 -0.00125 -0.007678125 0.175214
135 1 -0.033665625 -0.00125 -0.006496875 0.379867
136 1 -0.033665625 -0.00125 -0.005315625 0.325498
137 1 -0.033665625 -0.00125 -0.004134375 0.405983
138 1 -0.033665625 -0.00125 -0.002953125 0.45584
139 1 -0.033665625 -0.00125 -0.001771875 0.332621
140 1 -0.033665625 -0.00125 -0.000590625 0.283119
141 1 -0.033665625 -0.00125 0.000590625 0.367521
142 1 -0.033665625 -0.00125 0.001771875 0.42094
143 1 -0.033665625 -0.00125 0.002953125 0.145299
144 1 -0.033665625 -0.00125 0.004134375 0.244302
145 1 -0.033665625 -0.00125 0.005315625 0.349003
146 1 -0.033665625 -0.00125 0.006496875 0.321581
147 1 -0.033665625 -0.00125 0.007678125 0.446581
148 1 -0.033665625 -0.00125 0.008859375 0.13604
149 1 -0.033665625 -0.00125 0.010040625 0.174501
150 1 -0.033665625 -0.00125 0.011221875 0.411011
151 1 -0.033665625 -0.00125 0.012403125 0.495503
152 1 -0.033665625 -0.00125 0.013584375 0.200361
153 1 -0.033665625 0.000116666666667 -0.013584375 0.111798
154 1 -0.033665625 0.000116666666667 -0.012403125 0.452259
155 1 -0.033665625 0.000116666666667 -0.011221875 0.310206
156 1 -0.033665625 0.000116666666667 -0.010040625 0.196581
157 1 -0.033665625 0.000116666666667 -0.008859375 0.17094
158 1 -0.033665625 0.000116666666667 -0.007678125 0.175214
159 1 -0.033665625 0.000116666666667 -0.006496875 0.379867
160 1 -0.033665625 0.000116666666667 -0.005315625 0.325498
161 1 -0.033665625 0.000116666666667 -0.004134375 0.405983
162 1 -0.033665625 0.000116666666667 -0.002953125 0.45584
163 1 -0.033665625 0.000116666666667 -0.001771875 0.332621
164 1 -0.033665625 0.000116666666667 -0.000590625 0.283119
165 1 -0.033665625 0.000116666666667 0.000590625 0.367521
166 1 -0.033665625 0.000116666666667 0.001771875 0.42094
167 1 -0.033665625 0.000116666666667 0.002953125 0.145299
168 1 -0.033665625 0.000116666666667 0.004134375 0.244302
169 1 -0.033665625 0.000116666666667 0.005315625 0.349003
170 1 -0.033665625 0.000116666666667 0.006496875 0.321581
171 1 -0.033665625 0.000116666666667 0.007678125 0.446581
172 1 -0.033665625 0.000116666666667 0.008859375 0.13604
173 1 -0.033665625 0.000116666666667 0.010040625 0.174501
174 1 -0.033665625 0.000116666666667 0.011221875 0.411011
175 1 -0.033665625 0.000116666666667 0.012403125 0.495503
176 1 -0.033665625 0.000116666666667 0.013584375 0.200361
177 1 -0.032484375 -0.00261666666667 -0.018309375 0.0001
178 1 -0.032484375 -0.00261666666667 -0.017128125 0.0333333
179 1 -0.032484375 -0.00261666666667 -0.015946875 0.0001
180 1 -0.032484375 -0.00261666666667 -0.014765625 0.0001
181 1 -0.032484375 -0.00261666666667 -0.013584375 0.11396
182 1 -0.032484375 -0.00261666666667 -0.012403125 0.444444
183 1 -0.032484375 -0.00261666666667 -0.011221875 0.507123
184 1 -0.032484375 -0.00261666666667 -0.010040625 0.507123
185 1 -0.032484375 -0.00261666666667 -0.008859375 0.437322
186 1 -0.032484375 -0.00261666666667 -0.007678125 0.253561
187 1 -0.032484375 -0.00261666666667 -0.006496875 0.367521
188 1 -0.032484375 -0.00261666666667 -0.005315625 0.474359
189 1 -0.032484375 -0.00261666666667 -0.004134375 0.569801
190 1 -0.032484375 -0.00261666666667 -0.002953125 0.695157
191 1 -0.032484375 -0.00261666666667 -0.001771875 0.444444
192 1 -0.032484375 -0.00261666666667 -0.000590625 0.240741
193 1 -0.032484375 -0.00261666666667 0.000590625 0.38604
194 1 -0.032484375 -0.00261666666667 0.001771875 0.709402
195 1 -0.032484375 -0.00261666666667 0.002953125 0.632479
196 1 -0.032484375 -0.00261666666667 0.004134375 0.753561
197 1 -0.032484375 -0.00261666666667 0.005315625 0.507122
198 1 -0.032484375 -0.00261666666667 0.006496875 0.757123
199 1 -0.032484375 -0.00261666666667 0.007678125 0.474359
200 1 -0.032484375 -0.00261666666667 0.008859375 0.323362
201 1 -0.032484375 -0.00261666666667 0.010040625 0.492878
202 1 -0.032484375 -0.00261666666667 0.011221875 0.698006
203 1 -0.032484375 -0.00261666666667 0.012403125 0.514245
204 1 -0.032484375 -0.00261666666667 0.013584375 0.367521
205 1 -0.032484375 -0.00261666666667 0.014765625 0.279202
206 1 -0.032484375 -0.00261666666667 0.015946875 0.45098
207 1 -0.032484375 -0.00261666666667 0.017128125 0.214286
208 1 -0.032484375 -0.00261666666667 0.018309375 0.271429
209 1 -0.032484375 -0.00125 -0.018309375 0.0001
210 1 -0.032484375 -0.00125 -0.017128125 0.0333333
211 1 -0.032484375 -0.00125 -0.015946875 0.0001
212 1 -0.032484375 -0.00125 -0.014765625 0.0001
213 1 -0.032484375 -0.00125 -0.013584375 0.11396
214 1 -0.032484375 -0.00125 -0.012403125 0.444444
215 1 -0.032484375 -0.00125 -0.011221875 0.507123
216 1 -0.032484375 -0.00125 -0.010040625 0.507123
217 1 -0.032484375 -0.00125 -0.008859375 0.437322
218 1 -0.032484375 -0.00125 -0.007678125 0.253561
219 1 -0.032484375 -0.00125 -0.006496875 0.367521
220 1 -0.032484375 -0.00125 -0.005315625 0.474359
221 1 -0.032484375 -0.00125 -0.004134375 0.569801
222 1 -0.032484375 -0.00125 -0.002953125 0.695157
223 1 -0.032484375 -0.00125 -0.001771875 0.444444
224 1 -0.032484375 -0.00125 -0.000590625 0.240741
225 1 -0.032484375 -0.00125 0.000590625 0.38604
226 1 -0.032484375 -0.00125 0.001771875 0.709402
227 1 -0.032484375 -0.00125 0.002953125 0.632479
228 1 -0.032484375 -0.00125 0.004134375 0.753561
229 1 -0.032484375 -0.00125 0.005315625 0.507122
230 1 -0.032484375 -0.00125 0.006496875 0.757123
231 1 -0.032484375 -0.00125 0.007678125 0.474359
232 1 -0.032484375 -0.00125 0.008859375 0.323362
233 1 -0.032484375 -0.00125 0.010040625 0.492878
234 1 -0.032484375 -0.00125 0.011221875 0.698006
235 1 -0.032484375 -0.00125 0.012403125 0.514245
236 1 -0.032484375 -0.00125 0.013584375 0.367521
237 1 -0.032484375 -0.00125 0.014765625 0.279202
238 1 -0.032484375 -0.00125 0.015946875 0.45098
239 1 -0.032484375 -0.00125 0.017128125 0.214286
240 1 -0.032484375 -0.00125 0.018309375 0.271429
241 1 -0.032484375 0.000116666666667 -0.018309375 0.0001
242 1 -0.032484375 0.000116666666667 -0.017128125 0.0333333
243 1 -0.032484375 0.000116666666667 -0.015946875 0.0001
244 1 -0.032484375 0.000116666666667 -0.014765625 0.0001
245 1 -0.032484375 0.000116666666667 -0.013584375 0.11396
246 1 -0.032484375 0.000116666666667 -0.012403125 0.444444
247 1 -0.032484375 0.000116666666667 -0.011221875 0.507123
248 1 -0.032484375 0.000116666666667 -0.010040625 0.507123
249 1 -0.032484375 0.000116666666667 -0.008859375 0.437322
250 1 -0.032484375 0.000116666666667 -0.007678125 0.253561
251 1 -0.032484375 0.000116666666667 -0.006496875 0.367521
252 1 -0.032484375 0.000116666666667 -0.005315625 0.474359
253 1 -0.032484375 0.000116666666667 -0.004134375 0.569801
254 1 -0.032484375 0.000116666666667 -0.002953125 0.695157
255 1 -0.032484375 0.000116666666667 -0.001771875 0.444444
256 1 -0.032484375 0.000116666666667 -0.000590625 0.240741
257 1 -0.032484375 0.000116666666667 0.000590625 0.38604
258 1 -0.032484375 0.000116666666667 0.001771875 0.709402
259 1 -0.032484375 0.000116666666667 0.002953125 0.632479
260 1 -0.032484375 0.000116666666667 0.004134375 0.753561
261 1 -0.032484375 0.000116666666667 0.005315625 0.507122
262 1 -0.032484375 0.000116666666667 0.006496875 0.757123
263 1 -0.032484375 0.000116666666667 0.007678125 0.474359
264 1 -0.032484375 0.000116666666667 0.008859375 0.323362
265 1 -0.032484375 0.000116666666667 0.010040625 0.492878
266 1 -0.032484375 0.000116666666667 0.011221875 0.698006
267 1 -0.032484375 0.000116666666667 0.012403125 0.514245
268 1 -0.032484375 0.000116666666667 0.013584375 0.367521
269 1 -0.032484375 0.000116666666667 0.014765625 0.279202
270 1 -0.032484375 0.000116666666667 0.015946875 0.45098
271 1 -0.032484375 0.000116666666667 0.017128125 0.214286
272 1 -0.032484375 0.000116666666667 0.018309375 0.271429
273 1 -0.031303125 -0.00261666666667 -0.019490625 0.0333333
274 1 -0.031303125 -0.00261666666667 -0.018309375 0.0277778
275 1 -0.031303125 -0.00261666666667 -0.017128125 0.0883191
276 1 -0.031303125 -0.00261666666667 -0.015946875 0.0441596
277 1 -0.031303125 -0.00261666666667 -0.014765625 0.0001
278 1 -0.031303125 -0.00261666666667 -0.013584375 0.231481
279 1 -0.031303125 -0.00261666666667 -0.012403125 0.444444
280 1 -0.031303125 -0.00261666666667 -0.011221875 0.54416
281 1 -0.031303125 -0.00261666666667 -0.010040625 0.646724
282 1 -0.031303125 -0.00261666666667 -0.008859375 0.65812
283 1 -0.031303125 -0.00261666666667 -0.007678125 0.45584
284 1 -0.031303125 -0.00261666666667 -0.006496875 0.409544
285 1 -0.031303125 -0.00261666666667 -0.005315625 0.448718
286 1 -0.031303125 -0.00261666666667 -0.004134375 0.595442
287 1 -0.031303125 -0.00261666666667 -0.002953125 0.61396
288 1 -0.031303125 -0.00261666666667 -0.001771875 0.558405
289 1 -0.031303125 -0.00261666666667 -0.000590625 0.481481
290 1 -0.031303125 -0.00261666666667 0.000590625 0.683761
291 1 -0.031303125 -0.00261666666667 0.001771875 0.602564
292 1 -0.031303125 -0.00261666666667 0.002953125 0.54416
293 1 -0.031303125 -0.00261666666667 0.004134375 0.716524
294 1 -0.031303125 -0.00261666666667 0.005315625 0.709402
295 1 -0.031303125 -0.00261666666667 0.006496875 0.705841
296 1 -0.031303125 -0.00261666666667 0.007678125 0.576923
297 1 -0.031303125 -0.00261666666667 0.008859375 0.518519
298 1 -0.031303125 -0.00261666666667 0.010040625 0.68661
299 1 -0.031303125 -0.00261666666667 0.011221875 0.683761
300 1 -0.031303125 -0.00261666666667 0.012403125 0.558404
301 1 -0.031303125 -0.00261666666667 0.013584375 0.52208
302 1 -0.031303125 -0.00261666666667 0.014765625 0.393162
303 1 -0.031303125 -0.00261666666667 0.015946875 0.448718
304 1 -0.031303125 -0.00261666666667 0.017128125 0.323362
305 1 -0.031303125 -0.00261666666667 0.018309375 0.339869
306 1 -0.031303125 -0.00261666666667 0.019490625 0.180952
307 1 -0.031303125 -0.00125 -0.019490625 0.0333333
308 1 -0.031303125 -0.00125 -0.018309375 0.0277778
309 1 -0.031303125 -0.00125 -0.017128125 0.0883191
310 1 -0.031303125 -0.00125 -0.015946875 0.0441596
311 1 -0.031303125 -0.00125 -0.014765625 0.0001
312 1 -0.031303125 -0.00125 -0.013584375 0.231481
313 1 -0.031303125 -0.00125 -0.012403125 0.444444
314 1 -0.031303125 -0.00125 -0.011221875 0.54416
315 1 -0.031303125 -0.00125 -0.010040625 0.646724
316 1 -0.031303125 -0.00125 -0.008859375 0.65812
317 1 -0.031303125 -0.00125 -0.007678125 0.45584
318 1 -0.031303125 -0.00125 -0.006496875 0.409544
319 1 -0.031303125 -0.00125 -0.005315625 0.448718
320 1 -0.031303125 -0.00125 -0.004134375 0.595442
321 1 -0.031303125 -0.00125 -0.002953125 0.61396
322 1 -0.031303125 -0.00125 -0.001771875 0.558405
323 1 -0.031303125 -0.00125 -0.000590625 0.481481
324 1 -0.031303125 -0.00125 0.000590625 0.683761
325 1 -0.031303125 -0.00125 0.001771875 0.602564
326 1 -0.031303125 -0.00125 0.002953125 0.54416
327 1 -0.031303125 -0.00125 0.004134375 0.716524
328 1 -0.031303125 -0.00125 0.005315625 0.709402
329 1 -0.031303125 -0.00125 0.006496875 0.705841
330 1 -0.031303125 -0.00125 0.007678125 0.576923
331 1 -0.031303125 -0.00125 0.008859375 0.518519
332 1 -0.031303125 -0.00125 0.010040625 0.68661
333 1 -0.031303125 -0.00125 0.011221875 0.683761
334 1 -0.031303125 -0.00125 0.012403125 0.558404
335 1 -0.031303125 -0.00125 0.013584375 0.52208
336 1 -0.031303125 -0.00125 0.014765625 0.393162
337 1 -0.031303125 -0.00125 0.015946875 0.448718
338 1 -0.031303125 -0.00125 0.017128125 0.323362
339 1 -0.031303125 -0.00125 0.018309375 0.339869
340 1 -0.031303125 -0.00125 0.019490625 0.180952
341 1 -0.031303125 0.000116666666667 -0.019490625 0.0333333
342 1 -0.031303125 0.000116666666667 -0.018309375 0.0277778
343 1 -0.031303125 0.000116666666667 -0.017128125 0.0883191
344 1 -0.031303125 0.000116666666667 -0.015946875 0.0441596
345 1 -0.031303125 0.000116666666667 -0.014765625 0.0001
346 1 -0.031303125 0.000116666666667 -0.013584375 0.231481
347 1 -0.031303125 0.000116666666667 -0.012403125 0.444444
348 1 -0.031303125 0.000116666666667 -0.011221875 0.54416
349 1 -0.031303125 0.000116666666667 -0.010040625 0.646724
350 1 -0.031303125 0.000116666666667 -0.008859375 0.65812
351 1 -0.031303125 0.000116666666667 -0.007678125 0.45584
352 1 -0.031303125 0.000116666666667 -0.006496875 0.409544
353 1 -0.031303125 0.000116666666667 -0.005315625 0.448718
354 1 -0.031303125 0.000116666666667 -0.004134375 0.595442
355 1 -0.031303125 0.000116666666667 -0.002953125 0.61396
356 1 -0.031303125 0.000116666666667 -0.001771875 0.558405
357 1 -0.031303125 0.000116666666667 -0.000590625 0.481481
358 1 -0.031303125 0.000116666666667 0.000590625 0.683761
359 1 -0.031303125 0.000116666666667 0.001771875 0.602564
360 1 -0.031303125 0.000116666666667 0.002953125 0.54416
361 1 -0.031303125 0.000116666666667 0.004134375 0.716524
362 1 -0.031303125 0.000116666666667 0.005315625 0.709402
363 1 -0.031303125 0.000116666666667 0.006496875 0.705841
364 1 -0.031303125 0.000116666666667 0.007678125 0.576923
365 1 -0.031303125 0.000116666666667 0.008859375 0.518519
366 1 -0.031303125 0.000116666666667 0.010040625 0.68661
367 1 -0.031303125 0.000116666666667 0.011221875 0.683761
368 1 -0.031303125 0.000116666666667 0.012403125 0.558404
369 1 -0.031303125 0.000116666666667 0.013584375 0.52208
370 1 -0.031303125 0.000116666666667 0.014765625 0.393162
371 1 -0.031303125 0.000116666666667 0.015946875 0.448718
372 1 -0.031303125 0.000116666666667 0.017128125 0.323362
373 1 -0.031303125 0.000116666666667 0.018309375 0.339869
374 1 -0.031303125 0.000116666666667 0.019490625 0.180952
375 1 -0.030121875 -0.00261666666667 -0.020671875 0.0138889
376 1 -0.030121875 -0.00261666666667 -0.019490625 0.0001
377 1 -0.030121875 -0.00261666666667 -0.018309375 0.121083
378 1 -0.030121875 -0.00261666666667 -0.017128125 0.22792
379 1 -0.030121875 -0.00261666666667 -0.015946875 0.15812
380 1 -0.030121875 -0.00261666666667 -0.014765625 0.102564
381 1 -0.030121875 -0.00261666666667 -0.013584375 0.308404
382 1 -0.030121875 -0.00261666666667 -0.012403125 0.495727
383 1 -0.030121875 -0.00261666666667 -0.011221875 0.595442
384 1 -0.030121875 -0.00261666666667 -0.010040625 0.576923
385 1 -0.030121875 -0.00261666666667 -0.008859375 0.639601
386 1 -0.030121875 -0.00261666666667 -0.007678125 0.665242
387 1 -0.030121875 -0.00261666666667 -0.006496875 0.566239
388 1 -0.030121875 -0.00261666666667 -0.005315625 0.462963
389 1 -0.030121875 -0.00261666666667 -0.004134375 0.576923
390 1 -0.030121875 -0.00261666666667 -0.002953125 0.683761
391 1 -0.030121875 -0.00261666666667 -0.001771875 0.525641
392 1 -0.030121875 -0.00261666666667 -0.000590625 0.699786
393 1 -0.030121875 -0.00261666666667 0.000590625 0.503419
394 1 -0.030121875 -0.00261666666667 0.001771875 0.606838
395 1 -0.030121875 -0.00261666666667 0.002953125 0.588319
396 1 -0.030121875 -0.00261666666667 0.004134375 0.823362
397 1 -0.030121875 -0.00261666666667 0.005315625 0.75641
398 1 -0.030121875 -0.00261666666667 0.006496875 0.628205
399 1 -0.030121875 -0.00261666666667 0.007678125 0.628205
400 1 -0.030121875 -0.00261666666667 0.008859375 0.639601
401 1 -0.030121875 -0.00261666666667 0.010040625 0.65812
402 1 -0.030121875 -0.00261666666667 0.011221875 0.735043
403 1 -0.030121875 -0.00261666666667 0.012403125 0.804843
404 1 -0.030121875 -0.00261666666667 0.013584375 0.630342
405 1 -0.030121875 -0.00261666666667 0.014765625 0.602564
406 1 -0.030121875 -0.00261666666667 0.015946875 0.518519
407 1 -0.030121875 -0.00261666666667 0.017128125 0.45584
408 1 -0.030121875 -0.00261666666667 0.018309375 0.349003
409 1 -0.030121875 -0.00261666666667 0.019490625 0.286325
410 1 -0.030121875 -0.00261666666667 0.020671875 0.234589
411 1 -0.030121875 -0.00125 -0.020671875 0.0138889
412 1 -0.030121875 -0.00125 -0.019490625 0.0001
413 1 -0.030121875 -0.00125 -0.018309375 0.121083
414 1 -0.030121875 -0.00125 -0.017128125 0.22792
415 1 -0.030121875 -0.00125 -0.015946875 0.15812
416 1 -0.030121875 -0.00125 -0.014765625 0.102564
417 1 -0.030121875 -0.00125 -0.013584375 0.308404
418 1 -0.030121875 -0.00125 -0.012403125 0.495727
419 1 -0.030121875 -0.00125 -0.011221875 0.595442
420 1 -0.030121875 -0.00125 -0.010040625 0.576923
421 1 -0.030121875 -0.00125 -0.008859375 0.639601
422 1 -0.030121875 -0.00125 -0.007678125 0.665242
423 1 -0.030121875 -0.00125 -0.006496875 0.566239
424 1 -0.030121875 -0.00125 -0.005315625 0.462963
425 1 -0.030121875 -0.00125 -0.004134375 0.576923
426 1 -0.030121875 -0.00125 -0.002953125 0.683761
427 1 -0.030121875 -0.00125 -0.001771875 0.525641
428 1 -0.030121875 -0.00125 -0.000590625 0.699786
429 1 -0.030121875 -0.00125 0.000590625 0.503419
430 1 -0.030121875 -0.00125 0.001771875 0.606838
431 1 -0.030121875 -0.00125 0.002953125 0.588319
432 1 -0.030121875 -0.00125 0.004134375 0.823362
433 1 -0.030121875 -0.00125 0.005315625 0.75641
434 1 -0.030121875 -0.00125 0.006496875 0.628205
435 1 -0.030121875 -0.00125 0.007678125 0.628205
436 1 -0.030121875 -0.00125 0.008859375 0.639601
437 1 -0.030121875 -0.00125 0.010040625 0.65812
438 1 -0.030121875 -0.00125 0.011221875 0.735043
439 1 -0.030121875 -0.00125 0.012403125 0.804843
440 1 -0.030121875 -0.00125 0.013584375 0.630342
441 1 -0.030121875 -0.00125 0.014765625 0.602564
442 1 -0.030121875 -0.00125 0.015946875 0.518519
443 1 -0.030121875 -0.00125 0.017128125 0.45584
444 1 -0.030121875 -0.00125 0.018309375 0.349003
445 1 -0.030121875 -0.00125 0.019490625 0.286325
446 1 -0.030121875 -0.00125 0.020671875 0.234589
447 1 -0.030121875 0.000116666666667 -0.020671875 0.0138889
448 1 -0.030121875 0.000116666666667 -0.019490625 0.0001
449 1 -0.030121875 0.000116666666667 -0.018309375 0.121083
450 1 -0.030121875 0.000116666666667 -0.017128125 0.22792
451 1 -0.030121875 0.000116666666667 -0.015946875 0.15812
452 1 -0.030121875 0.000116666666667 -0.014765625 0.102564
453 1 -0.030121875 0.000116666666667 -0.013584375 0.308404
454 1 -0.030121875 0.000116666666667 -0.012403125 0.495727
455 1 -0.030121875 0.000116666666667 -0.011221875 0.595442
456 1 -0.030121875 0.000116666666667 -0.010040625 0.576923
457 1 -0.030121875 0.000116666666667 -0.008859375 0.639601
458 1 -0.030121875 0.000116666666667 -0.007678125 0.665242
459 1 -0.030121875 0.000116666666667 -0.006496875 0.566239
460 1 -0.030121875 0.000116666666667 -0.005315625 0.462963
461 1 -0.030121875 0.000116666666667 -0.004134375 0.576923
462 1 -0.030121875 0.000116666666667 -0.002953125 0.683761
463 1 -0.030121875 0.000116666666667 -0.001771875 0.525641
464 1 -0.030121875 0.000116666666667 -0.000590625 0.699786
465 1 -0.030121875 0.000116666666667 0.000590625 0.503419
466 1 -0.030121875 0.000116666666667 0.001771875 0.606838
467 1 -0.030121875 0.000116666666667 0.002953125 0.588319
468 1 -0.030121875 0.000116666666667 0.004134375 0.823362
469 1 -0.030121875 0.000116666666667 0.005315625 0.75641
470 1 -0.030121875 0.000116666666667 0.006496875 0.628205
471 1 -0.030121875 0.000116666666667 0.007678125 0.628205
472 1 -0.030121875 0.000116666666667 0.008859375 0.639601
473 1 -0.030121875 0.000116666666667 0.010040625 0.65812
474 1 -0.030121875 0.000116666666667 0.011221875 0.735043
475 1 -0.030121875 0.000116666666667 0.012403125 0.804843
476 1 -0.030121875 0.000116666666667 0.013584375 0.630342
477 1 -0.030121875 0.000116666666667 0.014765625 0.602564
478 1 -0.030121875 0.000116666666667 0.015946875 0.518519
479 1 -0.030121875 0.000116666666667 0.017128125 0.45584
480 1 -0.030121875 0.000116666666667 0.018309375 0.349003
481 1 -0.030121875 0.000116666666667 0.019490625 0.286325
482 1 -0.030121875 0.000116666666667 0.020671875 0.234589
483 1 -0.028940625 -0.00261666666667 -0.021853125 0.155303
484 1 -0.028940625 -0.00261666666667 -0.020671875 0.072482
485 1 -0.028940625 -0.00261666666667 -0.019490625 0.121083
486 1 -0.028940625 -0.00261666666667 -0.018309375 0.27208
487 1 -0.028940625 -0.00261666666667 -0.017128125 0.27208
488 1 -0.028940625 -0.00261666666667 -0.015946875 0.260684
489 1 -0.028940625 -0.00261666666667 -0.014765625 0.102564
490 1 -0.028940625 -0.00261666666667 -0.013584375 0.231482
491 1 -0.028940625 -0.00261666666667 -0.012403125 0.537037
492 1 -0.028940625 -0.00261666666667 -0.011221875 0.529915
493 1 -0.028940625 -0.00261666666667 -0.010040625 0.551282
494 1 -0.028940625 -0.00261666666667 -0.008859375 0.650997
495 1 -0.028940625 -0.00261666666667 -0.007678125 0.753561
496 1 -0.028940625 -0.00261666666667 -0.006496875 0.690883
497 1 -0.028940625 -0.00261666666667 -0.005315625 0.602564
498 1 -0.028940625 -0.00261666666667 -0.004134375 0.418803
499 1 -0.028940625 -0.00261666666667 -0.002953125 0.488604
500 1 -0.028940625 -0.00261666666667 -0.001771875 0.702279
501 1 -0.028940625 -0.00261666666667 -0.000590625 0.702564
502 1 -0.028940625 -0.00261666666667 0.000590625 0.646368
503 1 -0.028940625 -0.00261666666667 0.001771875 0.753561
504 1 -0.028940625 -0.00261666666667 0.002953125 0.65812
505 1 -0.028940625 -0.00261666666667 0.004134375 0.893162
506 1 -0.028940625 -0.00261666666667 0.005315625 0.609687
507 1 -0.028940625 -0.00261666666667 0.006496875 0.542023
508 1 -0.028940625 -0.00261666666667 0.007678125 0.581197
509 1 -0.028940625 -0.00261666666667 0.008859375 0.797721
510 1 -0.028940625 -0.00261666666667 0.010040625 0.609687
511 1 -0.028940625 -0.00261666666667 0.011221875 0.732194
512 1 -0.028940625 -0.00261666666667 0.012403125 0.646724
513 1 -0.028940625 -0.00261666666667 0.013584375 0.665242
514 1 -0.028940625 -0.00261666666667 0.014765625 0.683761
515 1 -0.028940625 -0.00261666666667 0.015946875 0.430199
516 1 -0.028940625 -0.00261666666667 0.017128125 0.521368
517 1 -0.028940625 -0.00261666666667 0.018309375 0.602564
518 1 -0.028940625 -0.00261666666667 0.019490625 0.404558
519 1 -0.028940625 -0.00261666666667 0.020671875 0.336224
520 1 -0.028940625 -0.00261666666667 0.021853125 0.299242
521 1 -0.028940625 -0.00125 -0.021853125 0.155303
522 1 -0.028940625 -0.00125 -0.020671875 0.072482
523 1 -0.028940625 -0.00125 -0.019490625 0.121083
524 1 -0.028940625 -0.00125 -0.018309375 0.27208
525 1 -0.028940625 -0.00125 -0.017128125 0.27208
526 1 -0.028940625 -0.00125 -0.015946875 0.260684
527 1 -0.028940625 -0.00125 -0.014765625 0.102564
528 1 -0.028940625 -0.00125 -0.013584375 0.231482
529 1 -0.028940625 -0.00125 -0.012403125 0.537037
530 1 -0.028940625 -0.00125 -0.011221875 0.529915
531 1 -0.028940625 -0.00125 -0.010040625 0.551282
532 1 -0.028940625 -0.00125 -0.008859375 0.650997
533 1 -0.028940625 -0.00125 -0.007678125 0.753561
534 1 -0.028940625 -0.00125 -0.006496875 0.690883
535 1 -0.028940625 -0.00125 -0.005315625 0.602564
536 1 -0.028940625 -0.00125 -0.004134375 0.418803
537 1 -0.028940625 -0.00125 -0.002953125 0.488604
538 1 -0.028940625 -0.00125 -0.001771875 0.702279