ITEM: TIMESTEP
0
ITEM: NUMBER OF ATOMS
9240
ITEM: BOX BOUNDS ss ss ss
-3.7007399999999996e-02 3.7007399999999996e-02
-2.0002499999999999e-03 2.5000000000000004e-07
-3.7007399999999996e-02 3.7007399999999996e-02
ITEM: ATOMS id type x y z c_1
0 1 -0.037209375 -0.00261666666667 -0.000590625 1.0
1 1 -0.037209375 -0.00125 -0.000590625 1.0
2 1 -0.037209375 0.000116666666667 -0.000590625 1.0
3 1 -0.036028125 -0.00261666666667 -0.007678125 0.0001
4 1 -0.036028125 -0.00261666666667 -0.006496875 0.0001
5 1 -0.036028125 -0.00261666666667 -0.005315625 0.212251
6 1 -0.036028125 -0.00261666666667 -0.004134375 0.088319
7 1 -0.036028125 -0.00261666666667 -0.002953125 0.19943
8 1 -0.036028125 -0.00261666666667 -0.001771875 0.162393
9 1 -0.036028125 -0.00261666666667 -0.000590625 0.0904762
10 1 -0.036028125 -0.00261666666667 0.000590625 0.137446
11 1 -0.036028125 -0.00261666666667 0.001771875 0.350427
12 1 -0.036028125 -0.00261666666667 0.002953125 0.299145
13 1 -0.036028125 -0.00261666666667 0.004134375 0.099715
14 1 -0.036028125 -0.00261666666667 0.005315625 0.0001
15 1 -0.036028125 -0.00261666666667 0.006496875 0.0001
16 1 -0.036028125 -0.00261666666667 0.007678125 0.0001
17 1 -0.036028125 -0.00125 -0.007678125 0.0001
18 1 -0.036028125 -0.00125 -0.006496875 0.0001
19 1 -0.036028125 -0.00125 -0.005315625 0.212251
20 1 -0.036028125 -0.00125 -0.004134375 0.088319
21 1 -0.036028125 -0.00125 -0.002953125 0.19943
22 1 -0.036028125 -0.00125 -0.001771875 0.162393
23 1 -0.036028125 -0.00125 -0.000590625 0.0904762
24 1 -0.036028125 -0.00125 0.000590625 0.137446
25 1 -0.036028125 -0.00125 0.001771875 0.350427
26 1 -0.036028125 -0.00125 0.002953125 0.299145
27 1 -0.036028125 -0.00125 0.004134375 0.099715
28 1 -0.036028125 -0.00125 0.005315625 0.0001
29 1 -0.036028125 -0.00125 0.006496875 0.0001
30 1 -0.036028125 -0.00125 0.007678125 0.0001
31 1 -0.036028125 0.000116666666667 -0.007678125 0.0001
32 1 -0.036028125 0.000116666666667 -0.006496875 0.0001
33 1 -0.036028125 0.000116666666667 -0.005315625 0.212251
34 1 -0.036028125 0.000116666666667 -0.004134375 0.088319
35 1 -0.036028125 0.000116666666667 -0.002953125 0.19943
36 1 -0.036028125 0.000116666666667 -0.001771875 0.162393
37 1 -0.036028125 0.000116666666667 -0.000590625 0.0904762
38 1 -0.036028125 0.000116666666667 0.000590625 0.137446
39 1 -0.036028125 0.000116666666667 0.001771875 0.350427
40 1 -0.036028125 0.000116666666667 0.002953125 0.299145
41 1 -0.036028125 0.000116666666667 0.004134375 0.099715
42 1 -0.036028125 0.000116666666667 0.005315625 0.0001
43 1 -0.036028125 0.000116666666667 0.006496875 0.0001
44 1 -0.036028125 0.000116666666667 0.007678125 0.0001
45 1 -0.034846875 -0.00261666666667 -0.011221875 0.0001
46 1 -0.034846875 -0.00261666666667 -0.010040625 0.037037
47 1 -0.034846875 -0.00261666666667 -0.008859375 0.0333333
48 1 -0.034846875 -0.00261666666667 -0.007678125 0.0001
49 1 -0.034846875 -0.00261666666667 -0.006496875 0.0185185
50 1 -0.034846875 -0.00261666666667 -0.005315625 0.183761
51 1 -0.034846875 -0.00261666666667 -0.004134375 0.0001
52 1 -0.034846875 -0.00261666666667 -0.002953125 0.0441596
53 1 -0.034846875 -0.00261666666667 -0.001771875 0.0954415
54 1 -0.034846875 -0.00261666666667 -0.000590625 0.051282
55 1 -0.034846875 -0.00261666666667 0.000590625 0.37678
56 1 -0.034846875 -0.00261666666667 0.001771875 0.27208
57 1 -0.034846875 -0.00261666666667 0.002953125 0.253561
58 1 -0.034846875 -0.00261666666667 0.004134375 0.165242
59 1 -0.034846875 -0.00261666666667 0.005315625 0.0954416
60 1 -0.034846875 -0.00261666666667 0.006496875 0.0954416
61 1 -0.034846875 -0.00261666666667 0.007678125 0.072482
62 1 -0.034846875 -0.00261666666667 0.008859375 0.0238095
63 1 -0.034846875 -0.00261666666667 0.010040625 0.0001
64 1 -0.034846875 -0.00261666666667 0.011221875 0.0001
65 1 -0.034846875 -0.00125 -0.011221875 0.0001
66 1 -0.034846875 -0.00125 -0.010040625 0.037037
67 1 -0.034846875 -0.00125 -0.008859375 0.0333333
68 1 -0.034846875 -0.00125 -0.007678125 0.0001
69 1 -0.034846875 -0.00125 -0.006496875 0.0185185
70 1 -0.034846875 -0.00125 -0.005315625 0.183761
71 1 -0.034846875 -0.00125 -0.004134375 0.0001
72 1 -0.034846875 -0.00125 -0.002953125 0.0441596
73 1 -0.034846875 -0.00125 -0.001771875 0.0954415
74 1 -0.034846875 -0.00125 -0.000590625 0.051282
75 1 -0.034846875 -0.00125 0.000590625 0.37678
76 1 -0.034846875 -0.00125 0.001771875 0.27208
77 1 -0.034846875 -0.00125 0.002953125 0.253561
78 1 -0.034846875 -0.00125 0.004134375 0.165242
79 1 -0.034846875 -0.00125 0.005315625 0.0954416
80 1 -0.034846875 -0.00125 0.006496875 0.0954416
81 1 -0.034846875 -0.00125 0.007678125 0.072482
82 1 -0.034846875 -0.00125 0.008859375 0.0238095
83 1 -0.034846875 -0.00125 0.010040625 0.0001
84 1 -0.034846875 -0.00125 0.011221875 0.0001
85 1 -0.034846875 0.000116666666667 -0.011221875 0.0001
86 1 -0.034846875 0.000116666666667 -0.010040625 0.037037
87 1 -0.034846875 0.000116666666667 -0.008859375 0.0333333
88 1 -0.034846875 0.000116666666667 -0.007678125 0.0001
89 1 -0.034846875 0.000116666666667 -0.006496875 0.0185185
90 1 -0.034846875 0.000116666666667 -0.005315625 0.183761
91 1 -0.034846875 0.000116666666667 -0.004134375 0.0001
92 1 -0.034846875 0.000116666666667 -0.002953125 0.0441596
93 1 -0.034846875 0.000116666666667 -0.001771875 0.0954415
94 1 -0.034846875 0.000116666666667 -0.000590625 0.051282
95 1 -0.034846875 0.000116666666667 0.000590625 0.37678
96 1 -0.034846875 0.000116666666667 0.001771875 0.27208
97 1 -0.034846875 0.000116666666667 0.002953125 0.253561
98 1 -0.034846875 0.000116666666667 0.004134375 0.165242
99 1 -0.034846875 0.000116666666667 0.005315625 0.0954416
100 1 -0.034846875 0.000116666666667 0.006496875 0.0954416
101 1 -0.034846875 0.000116666666667 0.007678125 0.072482
102 1 -0.034846875 0.000116666666667 0.008859375 0.0238095
103 1 -0.034846875 0.000116666666667 0.010040625 0.0001
104 1 -0.034846875 0.000116666666667 0.011221875 0.0001
105 1 -0.033665625 -0.00261666666667 -0.013584375 0.566877
106 1 -0.033665625 -0.00261666666667 -0.012403125 0.366463
107 1 -0.033665625 -0.00261666666667 -0.011221875 0.051282
108 1 -0.033665625 -0.00261666666667 -0.010040625 0.025641
109 1 -0.033665625 -0.00261666666667 -0.008859375 0.0384615
110 1 -0.033665625 -0.00261666666667 -0.007678125 0.0990028
111 1 -0.033665625 -0.00261666666667 -0.006496875 0.108262
112 1 -0.033665625 -0.00261666666667 -0.005315625 0.315171
113 1 -0.033665625 -0.00261666666667 -0.004134375 0.187322
114 1 -0.033665625 -0.00261666666667 -0.002953125 0.165242
115 1 -0.033665625 -0.00261666666667 -0.001771875 0.174501
116 1 -0.033665625 -0.00261666666667 -0.000590625 0.354701
117 1 -0.033665625 -0.00261666666667 0.000590625 0.399572
118 1 -0.033665625 -0.00261666666667 0.001771875 0.367521
119 1 -0.033665625 -0.00261666666667 0.002953125 0.3198
120 1 -0.033665625 -0.00261666666667 0.004134375 0.323361
121 1 -0.033665625 -0.00261666666667 0.005315625 0.314102
122 1 -0.033665625 -0.00261666666667 0.006496875 0.34188
123 1 -0.033665625 -0.00261666666667 0.007678125 0.291132
124 1 -0.033665625 -0.00261666666667 0.008859375 0.202279
125 1 -0.033665625 -0.00261666666667 0.010040625 0.0001
126 1 -0.033665625 -0.00261666666667 0.011221875 0.0001
127 1 -0.033665625 -0.00261666666667 0.012403125 0.0001
128 1 -0.033665625 -0.00261666666667 0.013584375 0.0001
129 1 -0.033665625 -0.00125 -0.013584375 0.566877
130 1 -0.033665625 -0.00125 -0.012403125 0.366463
131 1 -0.033665625 -0.00125 -0.011221875 0.051282
132 1 -0.033665625 -0.00125 -0.010040625 0.025641
133 1 -0.033665625 -0.00125 -0.008859375 0.0384615
134 1 -0.033665625 -0.00125 -0.007678125 0.0990028
135 1 -0.033665625 -0.00125 -0.006496875 0.108262
136 1 -0.033665625 -0.00125 -0.005315625 0.315171
137 1 -0.033665625 -0.00125 -0.004134375 0.187322
138 1 -0.033665625 -0.00125 -0.002953125 0.165242
139 1 -0.033665625 -0.00125 -0.001771875 0.174501
140 1 -0.033665625 -0.00125 -0.000590625 0.354701
141 1 -0.033665625 -0.00125 0.000590625 0.399572
142 1 -0.033665625 -0.00125 0.001771875 0.367521
143 1 -0.033665625 -0.00125 0.002953125 0.3198
144 1 -0.033665625 -0.00125 0.004134375 0.323361
145 1 -0.033665625 -0.00125 0.005315625 0.314102
146 1 -0.033665625 -0.00125 0.006496875 0.34188
147 1 -0.033665625 -0.00125 0.007678125 0.291132
148 1 -0.033665625 -0.00125 0.008859375 0.202279
149 1 -0.033665625 -0.00125 0.010040625 0.0001
150 1 -0.033665625 -0.00125 0.011221875 0.0001
151 1 -0.033665625 -0.00125 0.012403125 0.0001
152 1 -0.033665625 -0.00125 0.013584375 0.0001
153 1 -0.033665625 0.000116666666667 -0.013584375 0.566877
154 1 -0.033665625 0.000116666666667 -0.012403125 0.366463
155 1 -0.033665625 0.000116666666667 -0.011221875 0.051282
156 1 -0.033665625 0.000116666666667 -0.010040625 0.025641
157 1 -0.033665625 0.000116666666667 -0.008859375 0.0384615
158 1 -0.033665625 0.000116666666667 -0.007678125 0.0990028
159 1 -0.033665625 0.000116666666667 -0.006496875 0.108262
160 1 -0.033665625 0.000116666666667 -0.005315625 0.315171
161 1 -0.033665625 0.000116666666667 -0.004134375 0.187322
162 1 -0.033665625 0.000116666666667 -0.002953125 0.165242
163 1 -0.033665625 0.000116666666667 -0.001771875 0.174501
164 1 -0.033665625 0.000116666666667 -0.000590625 0.354701
165 1 -0.033665625 0.000116666666667 0.000590625 0.399572
166 1 -0.033665625 0.000116666666667 0.001771875 0.367521
167 1 -0.033665625 0.000116666666667 0.002953125 0.3198
168 1 -0.033665625 0.000116666666667 0.004134375 0.323361
169 1 -0.033665625 0.000116666666667 0.005315625 0.314102
170 1 -0.033665625 0.000116666666667 0.006496875 0.34188
171 1 -0.033665625 0.000116666666667 0.007678125 0.291132
172 1 -0.033665625 0.000116666666667 0.008859375 0.202279
173 1 -0.033665625 0.000116666666667 0.010040625 0.0001
174 1 -0.033665625 0.000116666666667 0.011221875 0.0001
175 1 -0.033665625 0.000116666666667 0.012403125 0.0001
176 1 -0.033665625 0.000116666666667 0.013584375 0.0001
177 1 -0.032484375 -0.00261666666667 -0.018309375 0.852381
178 1 -0.032484375 -0.00261666666667 -0.017128125 0.785714
179 1 -0.032484375 -0.00261666666667 -0.015946875 0.746732
180 1 -0.032484375 -0.00261666666667 -0.014765625 0.683761
181 1 -0.032484375 -0.00261666666667 -0.013584375 0.632479
182 1 -0.032484375 -0.00261666666667 -0.012403125 0.492877
183 1 -0.032484375 -0.00261666666667 -0.011221875 0.279202
184 1 -0.032484375 -0.00261666666667 -0.010040625 0.102564
185 1 -0.032484375 -0.00261666666667 -0.008859375 0.0698006
186 1 -0.032484375 -0.00261666666667 -0.007678125 0.190883
187 1 -0.032484375 -0.00261666666667 -0.006496875 0.446581
188 1 -0.032484375 -0.00261666666667 -0.005315625 0.595442
189 1 -0.032484375 -0.00261666666667 -0.004134375 0.492878
190 1 -0.032484375 -0.00261666666667 -0.002953125 0.595442
191 1 -0.032484375 -0.00261666666667 -0.001771875 0.621083
192 1 -0.032484375 -0.00261666666667 -0.000590625 0.54416
193 1 -0.032484375 -0.00261666666667 0.000590625 0.323362
194 1 -0.032484375 -0.00261666666667 0.001771875 0.330484
195 1 -0.032484375 -0.00261666666667 0.002953125 0.411681
196 1 -0.032484375 -0.00261666666667 0.004134375 0.411681
197 1 -0.032484375 -0.00261666666667 0.005315625 0.404558
198 1 -0.032484375 -0.00261666666667 0.006496875 0.602564
199 1 -0.032484375 -0.00261666666667 0.007678125 0.561111
200 1 -0.032484375 -0.00261666666667 0.008859375 0.222222
201 1 -0.032484375 -0.00261666666667 0.010040625 0.0349003
202 1 -0.032484375 -0.00261666666667 0.011221875 0.0001
203 1 -0.032484375 -0.00261666666667 0.012403125 0.025641
204 1 -0.032484375 -0.00261666666667 0.013584375 0.0459401
205 1 -0.032484375 -0.00261666666667 0.014765625 0.025641
206 1 -0.032484375 -0.00261666666667 0.015946875 0.0515873
207 1 -0.032484375 -0.00261666666667 0.017128125 0.157143
208 1 -0.032484375 -0.00261666666667 0.018309375 0.17619
209 1 -0.032484375 -0.00125 -0.018309375 0.852381
210 1 -0.032484375 -0.00125 -0.017128125 0.785714
211 1 -0.032484375 -0.00125 -0.015946875 0.746732
212 1 -0.032484375 -0.00125 -0.014765625 0.683761
213 1 -0.032484375 -0.00125 -0.013584375 0.632479
214 1 -0.032484375 -0.00125 -0.012403125 0.492877
215 1 -0.032484375 -0.00125 -0.011221875 0.279202
216 1 -0.032484375 -0.00125 -0.010040625 0.102564
217 1 -0.032484375 -0.00125 -0.008859375 0.0698006
218 1 -0.032484375 -0.00125 -0.007678125 0.190883
219 1 -0.032484375 -0.00125 -0.006496875 0.446581
220 1 -0.032484375 -0.00125 -0.005315625 0.595442
221 1 -0.032484375 -0.00125 -0.004134375 0.492878
222 1 -0.032484375 -0.00125 -0.002953125 0.595442
223 1 -0.032484375 -0.00125 -0.001771875 0.621083
224 1 -0.032484375 -0.00125 -0.000590625 0.54416
225 1 -0.032484375 -0.00125 0.000590625 0.323362
226 1 -0.032484375 -0.00125 0.001771875 0.330484
227 1 -0.032484375 -0.00125 0.002953125 0.411681
228 1 -0.032484375 -0.00125 0.004134375 0.411681
229 1 -0.032484375 -0.00125 0.005315625 0.404558
230 1 -0.032484375 -0.00125 0.006496875 0.602564
231 1 -0.032484375 -0.00125 0.007678125 0.561111
232 1 -0.032484375 -0.00125 0.008859375 0.222222
233 1 -0.032484375 -0.00125 0.010040625 0.0349003
234 1 -0.032484375 -0.00125 0.011221875 0.0001
235 1 -0.032484375 -0.00125 0.012403125 0.025641
236 1 -0.032484375 -0.00125 0.013584375 0.0459401
237 1 -0.032484375 -0.00125 0.014765625 0.025641
238 1 -0.032484375 -0.00125 0.015946875 0.0515873
239 1 -0.032484375 -0.00125 0.017128125 0.157143
240 1 -0.032484375 -0.00125 0.018309375 0.17619
241 1 -0.032484375 0.000116666666667 -0.018309375 0.852381
242 1 -0.032484375 0.000116666666667 -0.017128125 0.785714
243 1 -0.032484375 0.000116666666667 -0.015946875 0.746732
244 1 -0.032484375 0.000116666666667 -0.014765625 0.683761
245 1 -0.032484375 0.000116666666667 -0.013584375 0.632479
246 1 -0.032484375 0.000116666666667 -0.012403125 0.492877
247 1 -0.032484375 0.000116666666667 -0.011221875 0.279202
248 1 -0.032484375 0.000116666666667 -0.010040625 0.102564
249 1 -0.032484375 0.000116666666667 -0.008859375 0.0698006
250 1 -0.032484375 0.000116666666667 -0.007678125 0.190883
251 1 -0.032484375 0.000116666666667 -0.006496875 0.446581
252 1 -0.032484375 0.000116666666667 -0.005315625 0.595442
253 1 -0.032484375 0.000116666666667 -0.004134375 0.492878
254 1 -0.032484375 0.000116666666667 -0.002953125 0.595442
255 1 -0.032484375 0.000116666666667 -0.001771875 0.621083
256 1 -0.032484375 0.000116666666667 -0.000590625 0.54416
257 1 -0.032484375 0.000116666666667 0.000590625 0.323362
258 1 -0.032484375 0.000116666666667 0.001771875 0.330484
259 1 -0.032484375 0.000116666666667 0.002953125 0.411681
260 1 -0.032484375 0.000116666666667 0.004134375 0.411681
261 1 -0.032484375 0.000116666666667 0.005315625 0.404558
262 1 -0.032484375 0.000116666666667 0.006496875 0.602564
263 1 -0.032484375 0.000116666666667 0.007678125 0.561111
264 1 -0.032484375 0.000116666666667 0.008859375 0.222222
265 1 -0.032484375 0.000116666666667 0.010040625 0.0349003
266 1 -0.032484375 0.000116666666667 0.011221875 0.0001
267 1 -0.032484375 0.000116666666667 0.012403125 0.025641
268 1 -0.032484375 0.000116666666667 0.013584375 0.0459401
269 1 -0.032484375 0.000116666666667 0.014765625 0.025641
270 1 -0.032484375 0.000116666666667 0.015946875 0.0515873
271 1 -0.032484375 0.000116666666667 0.017128125 0.157143
272 1 -0.032484375 0.000116666666667 0.018309375 0.17619
273 1 -0.031303125 -0.00261666666667 -0.019490625 0.67381
274 1 -0.031303125 -0.00261666666667 -0.018309375 0.640523
275 1 -0.031303125 -0.00261666666667 -0.017128125 0.646724
276 1 -0.031303125 -0.00261666666667 -0.015946875 0.562678
277 1 -0.031303125 -0.00261666666667 -0.014765625 0.576923
278 1 -0.031303125 -0.00261666666667 -0.013584375 0.695157
279 1 -0.031303125 -0.00261666666667 -0.012403125 0.569801
280 1 -0.031303125 -0.00261666666667 -0.011221875 0.374644
281 1 -0.031303125 -0.00261666666667 -0.010040625 0.190883
282 1 -0.031303125 -0.00261666666667 -0.008859375 0.356125
283 1 -0.031303125 -0.00261666666667 -0.007678125 0.404558
284 1 -0.031303125 -0.00261666666667 -0.006496875 0.621083
285 1 -0.031303125 -0.00261666666667 -0.005315625 0.690883
286 1 -0.031303125 -0.00261666666667 -0.004134375 0.606838
287 1 -0.031303125 -0.00261666666667 -0.002953125 0.599715
288 1 -0.031303125 -0.00261666666667 -0.001771875 0.507122
289 1 -0.031303125 -0.00261666666667 -0.000590625 0.576923
290 1 -0.031303125 -0.00261666666667 0.000590625 0.43376
291 1 -0.031303125 -0.00261666666667 0.001771875 0.72792
292 1 -0.031303125 -0.00261666666667 0.002953125 0.606838
293 1 -0.031303125 -0.00261666666667 0.004134375 0.5
294 1 -0.031303125 -0.00261666666667 0.005315625 0.525641
295 1 -0.031303125 -0.00261666666667 0.006496875 0.393162
296 1 -0.031303125 -0.00261666666667 0.007678125 0.389601
297 1 -0.031303125 -0.00261666666667 0.008859375 0.121083
298 1 -0.031303125 -0.00261666666667 0.010040625 0.025641
299 1 -0.031303125 -0.00261666666667 0.011221875 0.0512821
300 1 -0.031303125 -0.00261666666667 0.012403125 0.088319
301 1 -0.031303125 -0.00261666666667 0.013584375 0.314103
302 1 -0.031303125 -0.00261666666667 0.014765625 0.11396
303 1 -0.031303125 -0.00261666666667 0.015946875 0.102564
304 1 -0.031303125 -0.00261666666667 0.017128125 0.102564
305 1 -0.031303125 -0.00261666666667 0.018309375 0.0473856
306 1 -0.031303125 -0.00261666666667 0.019490625 0.0904762
307 1 -0.031303125 -0.00125 -0.019490625 0.67381
308 1 -0.031303125 -0.00125 -0.018309375 0.640523
309 1 -0.031303125 -0.00125 -0.017128125 0.646724
310 1 -0.031303125 -0.00125 -0.015946875 0.562678
311 1 -0.031303125 -0.00125 -0.014765625 0.576923
312 1 -0.031303125 -0.00125 -0.013584375 0.695157
313 1 -0.031303125 -0.00125 -0.012403125 0.569801
314 1 -0.031303125 -0.00125 -0.011221875 0.374644
315 1 -0.031303125 -0.00125 -0.010040625 0.190883
316 1 -0.031303125 -0.00125 -0.008859375 0.356125
317 1 -0.031303125 -0.00125 -0.007678125 0.404558
318 1 -0.031303125 -0.00125 -0.006496875 0.621083
319 1 -0.031303125 -0.00125 -0.005315625 0.690883
320 1 -0.031303125 -0.00125 -0.004134375 0.606838
321 1 -0.031303125 -0.00125 -0.002953125 0.599715
322 1 -0.031303125 -0.00125 -0.001771875 0.507122
323 1 -0.031303125 -0.00125 -0.000590625 0.576923
324 1 -0.031303125 -0.00125 0.000590625 0.43376
325 1 -0.031303125 -0.00125 0.001771875 0.72792
326 1 -0.031303125 -0.00125 0.002953125 0.606838
327 1 -0.031303125 -0.00125 0.004134375 0.5
328 1 -0.031303125 -0.00125 0.005315625 0.525641
329 1 -0.031303125 -0.00125 0.006496875 0.393162
330 1 -0.031303125 -0.00125 0.007678125 0.389601
331 1 -0.031303125 -0.00125 0.008859375 0.121083
332 1 -0.031303125 -0.00125 0.010040625 0.025641
333 1 -0.031303125 -0.00125 0.011221875 0.0512821
334 1 -0.031303125 -0.00125 0.012403125 0.088319
335 1 -0.031303125 -0.00125 0.013584375 0.314103
336 1 -0.031303125 -0.00125 0.014765625 0.11396
337 1 -0.031303125 -0.00125 0.015946875 0.102564
338 1 -0.031303125 -0.00125 0.017128125 0.102564
339 1 -0.031303125 -0.00125 0.018309375 0.0473856
340 1 -0.031303125 -0.00125 0.019490625 0.0904762
341 1 -0.031303125 0.000116666666667 -0.019490625 0.67381
342 1 -0.031303125 0.000116666666667 -0.018309375 0.640523
343 1 -0.031303125 0.000116666666667 -0.017128125 0.646724
344 1 -0.031303125 0.000116666666667 -0.015946875 0.562678
345 1 -0.031303125 0.000116666666667 -0.014765625 0.576923
346 1 -0.031303125 0.000116666666667 -0.013584375 0.695157
347 1 -0.031303125 0.000116666666667 -0.012403125 0.569801
348 1 -0.031303125 0.000116666666667 -0.011221875 0.374644
349 1 -0.031303125 0.000116666666667 -0.010040625 0.190883
350 1 -0.031303125 0.000116666666667 -0.008859375 0.356125
351 1 -0.031303125 0.000116666666667 -0.007678125 0.404558
352 1 -0.031303125 0.000116666666667 -0.006496875 0.621083
353 1 -0.031303125 0.000116666666667 -0.005315625 0.690883
354 1 -0.031303125 0.000116666666667 -0.004134375 0.606838
355 1 -0.031303125 0.000116666666667 -0.002953125 0.599715
356 1 -0.031303125 0.000116666666667 -0.001771875 0.507122
357 1 -0.031303125 0.000116666666667 -0.000590625 0.576923
358 1 -0.031303125 0.000116666666667 0.000590625 0.43376
359 1 -0.031303125 0.000116666666667 0.001771875 0.72792
360 1 -0.031303125 0.000116666666667 0.002953125 0.606838
361 1 -0.031303125 0.000116666666667 0.004134375 0.5
362 1 -0.031303125 0.000116666666667 0.005315625 0.525641
363 1 -0.031303125 0.000116666666667 0.006496875 0.393162
364 1 -0.031303125 0.000116666666667 0.007678125 0.389601
365 1 -0.031303125 0.000116666666667 0.008859375 0.121083
366 1 -0.031303125 0.000116666666667 0.010040625 0.025641
367 1 -0.031303125 0.000116666666667 0.011221875 0.0512821
368 1 -0.031303125 0.000116666666667 0.012403125 0.088319
369 1 -0.031303125 0.000116666666667 0.013584375 0.314103
370 1 -0.031303125 0.000116666666667 0.014765625 0.11396
371 1 -0.031303125 0.000116666666667 0.015946875 0.102564
372 1 -0.031303125 0.000116666666667 0.017128125 0.102564
373 1 -0.031303125 0.000116666666667 0.018309375 0.0473856
374 1 -0.031303125 0.000116666666667 0.019490625 0.0904762
375 1 -0.030121875 -0.00261666666667 -0.020671875 0.92803
376 1 -0.030121875 -0.00261666666667 -0.019490625 0.760453
377 1 -0.030121875 -0.00261666666667 -0.018309375 0.665242
378 1 -0.030121875 -0.00261666666667 -0.017128125 0.739316
379 1 -0.030121875 -0.00261666666667 -0.015946875 0.702279
380 1 -0.030121875 -0.00261666666667 -0.014765625 0.746439
381 1 -0.030121875 -0.00261666666667 -0.013584375 0.665242
382 1 -0.030121875 -0.00261666666667 -0.012403125 0.37678
383 1 -0.030121875 -0.00261666666667 -0.011221875 0.356125
384 1 -0.030121875 -0.00261666666667 -0.010040625 0.279202
385 1 -0.030121875 -0.00261666666667 -0.008859375 0.304843
386 1 -0.030121875 -0.00261666666667 -0.007678125 0.304843
387 1 -0.030121875 -0.00261666666667 -0.006496875 0.405983
388 1 -0.030121875 -0.00261666666667 -0.005315625 0.485755
389 1 -0.030121875 -0.00261666666667 -0.004134375 0.709402
390 1 -0.030121875 -0.00261666666667 -0.002953125 0.646724
391 1 -0.030121875 -0.00261666666667 -0.001771875 0.34188
392 1 -0.030121875 -0.00261666666667 -0.000590625 0.532763
393 1 -0.030121875 -0.00261666666667 0.000590625 0.707978
394 1 -0.030121875 -0.00261666666667 0.001771875 0.61396
395 1 -0.030121875 -0.00261666666667 0.002953125 0.65812
396 1 -0.030121875 -0.00261666666667 0.004134375 0.497151
397 1 -0.030121875 -0.00261666666667 0.005315625 0.367521
398 1 -0.030121875 -0.00261666666667 0.006496875 0.356125
399 1 -0.030121875 -0.00261666666667 0.007678125 0.281339
400 1 -0.030121875 -0.00261666666667 0.008859375 0.11396
401 1 -0.030121875 -0.00261666666667 0.010040625 0.209402
402 1 -0.030121875 -0.00261666666667 0.011221875 0.304843
403 1 -0.030121875 -0.00261666666667 0.012403125 0.367521
404 1 -0.030121875 -0.00261666666667 0.013584375 0.397436
405 1 -0.030121875 -0.00261666666667 0.014765625 0.0512821
406 1 -0.030121875 -0.00261666666667 0.015946875 0.121083
407 1 -0.030121875 -0.00261666666667 0.017128125 0.198006
408 1 -0.030121875 -0.00261666666667 0.018309375 0.139601
409 1 -0.030121875 -0.00261666666667 0.019490625 0.0001
410 1 -0.030121875 -0.00261666666667 0.020671875 0.0208333
411 1 -0.030121875 -0.00125 -0.020671875 0.92803
412 1 -0.030121875 -0.00125 -0.019490625 0.760453
413 1 -0.030121875 -0.00125 -0.018309375 0.665242
414 1 -0.030121875 -0.00125 -0.017128125 0.739316
415 1 -0.030121875 -0.00125 -0.015946875 0.702279
416 1 -0.030121875 -0.00125 -0.014765625 0.746439
417 1 -0.030121875 -0.00125 -0.013584375 0.665242
418 1 -0.030121875 -0.00125 -0.012403125 0.37678
419 1 -0.030121875 -0.00125 -0.011221875 0.356125
420 1 -0.030121875 -0.00125 -0.010040625 0.279202
421 1 -0.030121875 -0.00125 -0.008859375 0.304843
422 1 -0.030121875 -0.00125 -0.007678125 0.304843
423 1 -0.030121875 -0.00125 -0.006496875 0.405983
424 1 -0.030121875 -0.00125 -0.005315625 0.485755
425 1 -0.030121875 -0.00125 -0.004134375 0.709402
426 1 -0.030121875 -0.00125 -0.002953125 0.646724
427 1 -0.030121875 -0.00125 -0.001771875 0.34188
428 1 -0.030121875 -0.00125 -0.000590625 0.532763
429 1 -0.030121875 -0.00125 0.000590625 0.707978
430 1 -0.030121875 -0.00125 0.001771875 0.61396
431 1 -0.030121875 -0.00125 0.002953125 0.65812
432 1 -0.030121875 -0.00125 0.004134375 0.497151
433 1 -0.030121875 -0.00125 0.005315625 0.367521
434 1 -0.030121875 -0.00125 0.006496875 0.356125
435 1 -0.030121875 -0.00125 0.007678125 0.281339
436 1 -0.030121875 -0.00125 0.008859375 0.11396
437 1 -0.030121875 -0.00125 0.010040625 0.209402
438 1 -0.030121875 -0.00125 0.011221875 0.304843
439 1 -0.030121875 -0.00125 0.012403125 0.367521
440 1 -0.030121875 -0.00125 0.013584375 0.397436
441 1 -0.030121875 -0.00125 0.014765625 0.0512821
442 1 -0.030121875 -0.00125 0.015946875 0.121083
443 1 -0.030121875 -0.00125 0.017128125 0.198006
444 1 -0.030121875 -0.00125 0.018309375 0.139601
445 1 -0.030121875 -0.00125 0.019490625 0.0001
446 1 -0.030121875 -0.00125 0.020671875 0.0208333
447 1 -0.030121875 0.000116666666667 -0.020671875 0.92803
448 1 -0.030121875 0.000116666666667 -0.019490625 0.760453
449 1 -0.030121875 0.000116666666667 -0.018309375 0.665242
450 1 -0.030121875 0.000116666666667 -0.017128125 0.739316
451 1 -0.030121875 0.000116666666667 -0.015946875 0.702279
452 1 -0.030121875 0.000116666666667 -0.014765625 0.746439
453 1 -0.030121875 0.000116666666667 -0.013584375 0.665242
454 1 -0.030121875 0.000116666666667 -0.012403125 0.37678
455 1 -0.030121875 0.000116666666667 -0.011221875 0.356125
456 1 -0.030121875 0.000116666666667 -0.010040625 0.279202
457 1 -0.030121875 0.000116666666667 -0.008859375 0.304843
458 1 -0.030121875 0.000116666666667 -0.007678125 0.304843
459 1 -0.030121875 0.000116666666667 -0.006496875 0.405983
460 1 -0.030121875 0.000116666666667 -0.005315625 0.485755
461 1 -0.030121875 0.000116666666667 -0.004134375 0.709402
462 1 -0.030121875 0.000116666666667 -0.002953125 0.646724
463 1 -0.030121875 0.000116666666667 -0.001771875 0.34188
464 1 -0.030121875 0.000116666666667 -0.000590625 0.532763
465 1 -0.030121875 0.000116666666667 0.000590625 0.707978
466 1 -0.030121875 0.000116666666667 0.001771875 0.61396
467 1 -0.030121875 0.000116666666667 0.002953125 0.65812
468 1 -0.030121875 0.000116666666667 0.004134375 0.497151
469 1 -0.030121875 0.000116666666667 0.005315625 0.367521
470 1 -0.030121875 0.000116666666667 0.006496875 0.356125
471 1 -0.030121875 0.000116666666667 0.007678125 0.281339
472 1 -0.030121875 0.000116666666667 0.008859375 0.11396
473 1 -0.030121875 0.000116666666667 0.010040625 0.209402
474 1 -0.030121875 0.000116666666667 0.011221875 0.304843
475 1 -0.030121875 0.000116666666667 0.012403125 0.367521
476 1 -0.030121875 0.000116666666667 0.013584375 0.397436
477 1 -0.030121875 0.000116666666667 0.014765625 0.0512821
478 1 -0.030121875 0.000116666666667 0.015946875 0.121083
479 1 -0.030121875 0.000116666666667 0.017128125 0.198006
480 1 -0.030121875 0.000116666666667 0.018309375 0.139601
481 1 -0.030121875 0.000116666666667 0.019490625 0.0001
482 1 -0.030121875 0.000116666666667 0.020671875 0.0208333
483 1 -0.028940625 -0.00261666666667 -0.021853125 0.844697
484 1 -0.028940625 -0.00261666666667 -0.020671875 0.78268
485 1 -0.028940625 -0.00261666666667 -0.019490625 0.698718
486 1 -0.028940625 -0.00261666666667 -0.018309375 0.809117
487 1 -0.028940625 -0.00261666666667 -0.017128125 0.764957
488 1 -0.028940625 -0.00261666666667 -0.015946875 0.683761
489 1 -0.028940625 -0.00261666666667 -0.014765625 0.584046
490 1 -0.028940625 -0.00261666666667 -0.013584375 0.474359
491 1 -0.028940625 -0.00261666666667 -0.012403125 0.292023
492 1 -0.028940625 -0.00261666666667 -0.011221875 0.27208
493 1 -0.028940625 -0.00261666666667 -0.010040625 0.22792
494 1 -0.028940625 -0.00261666666667 -0.008859375 0.260684
495 1 -0.028940625 -0.00261666666667 -0.007678125 0.253561
496 1 -0.028940625 -0.00261666666667 -0.006496875 0.532764
497 1 -0.028940625 -0.00261666666667 -0.005315625 0.5
498 1 -0.028940625 -0.00261666666667 -0.004134375 0.444444
499 1 -0.028940625 -0.00261666666667 -0.002953125 0.253561
500 1 -0.028940625 -0.00261666666667 -0.001771875 0.393162
501 1 -0.028940625 -0.00261666666667 -0.000590625 0.595442
502 1 -0.028940625 -0.00261666666667 0.000590625 0.650997
503 1 -0.028940625 -0.00261666666667 0.001771875 0.400285
504 1 -0.028940625 -0.00261666666667 0.002953125 0.430199
505 1 -0.028940625 -0.00261666666667 0.004134375 0.38604
506 1 -0.028940625 -0.00261666666667 0.005315625 0.337607
507 1 -0.028940625 -0.00261666666667 0.006496875 0.27208
508 1 -0.028940625 -0.00261666666667 0.007678125 0.15812
509 1 -0.028940625 -0.00261666666667 0.008859375 0.334758
510 1 -0.028940625 -0.00261666666667 0.010040625 0.5
511 1 -0.028940625 -0.00261666666667 0.011221875 0.38604
512 1 -0.028940625 -0.00261666666667 0.012403125 0.467237
513 1 -0.028940625 -0.00261666666667 0.013584375 0.380342
514 1 -0.028940625 -0.00261666666667 0.014765625 0.22792
515 1 -0.028940625 -0.00261666666667 0.015946875 0.304843
516 1 -0.028940625 -0.00261666666667 0.017128125 0.38604
517 1 -0.028940625 -0.00261666666667 0.018309375 0.297721
518 1 -0.028940625 -0.00261666666667 0.019490625 0.27208
519 1 -0.028940625 -0.00261666666667 0.020671875 0.178251
520 1 -0.028940625 -0.00261666666667 0.021853125 0.227273
521 1 -0.028940625 -0.00125 -0.021853125 0.844697
522 1 -0.028940625 -0.00125 -0.020671875 0.78268
523 1 -0.028940625 -0.00125 -0.019490625 0.698718
524 1 -0.028940625 -0.00125 -0.018309375 0.809117
525 1 -0.028940625 -0.00125 -0.017128125 0.764957
526 1 -0.028940625 -0.00125 -0.015946875 0.683761
527 1 -0.028940625 -0.00125 -0.014765625 0.584046
528 1 -0.028940625 -0.00125 -0.013584375 0.474359
529 1 -0.028940625 -0.00125 -0.012403125 0.292023
530 1 -0.028940625 -0.00125 -0.011221875 0.27208
531 1 -0.028940625 -0.00125 -0.010040625 0.22792
532 1 -0.028940625 -0.00125 -0.008859375 0.260684
533 1 -0.028940625 -0.00125 -0.007678125 0.253561
534 1 -0.028940625 -0.00125 -0.006496875 0.532764
535 1 -0.028940625 -0.00125 -0.005315625 0.5
536 1 -0.028940625 -0.00125 -0.004134375 0.444444
537 1 -0.028940625 -0.00125 -0.002953125 0.253561
538 1 -0.028940625 -0.00125 -0.001771875 0.393162
539 1 -0.028940625 -0.00125 -0.000590625 0.595442