ITEM: TIMESTEP
0
ITEM: NUMBER OF ATOMS
9240
ITEM: BOX BOUNDS ss ss ss
-3.7007399999999996e-02 3.7007399999999996e-02
-2.0002499999999999e-03 2.5000000000000004e-07
-3.7007399999999996e-02 3.7007399999999996e-02
ITEM: ATOMS id type x y z c_1
0 1 -0.037209375 -0.00261666666667 -0.000590625 1.0
1 1 -0.037209375 -0.00125 -0.000590625 1.0
2 1 -0.037209375 0.000116666666667 -0.000590625 1.0
3 1 -0.036028125 -0.00261666666667 -0.007678125 0.128571
4 1 -0.036028125 -0.00261666666667 -0.006496875 0.025641
5 1 -0.036028125 -0.00261666666667 -0.005315625 0.0185185
6 1 -0.036028125 -0.00261666666667 -0.004134375 0.0001
7 1 -0.036028125 -0.00261666666667 -0.002953125 0.125356
8 1 -0.036028125 -0.00261666666667 -0.001771875 0.435897
9 1 -0.036028125 -0.00261666666667 -0.000590625 0.5
10 1 -0.036028125 -0.00261666666667 0.000590625 0.27592
11 1 -0.036028125 -0.00261666666667 0.001771875 0.0001
12 1 -0.036028125 -0.00261666666667 0.002953125 0.0001
13 1 -0.036028125 -0.00261666666667 0.004134375 0.062678
14 1 -0.036028125 -0.00261666666667 0.005315625 0.136752
15 1 -0.036028125 -0.00261666666667 0.006496875 0.074074
16 1 -0.036028125 -0.00261666666667 0.007678125 0.0238095
17 1 -0.036028125 -0.00125 -0.007678125 0.128571
18 1 -0.036028125 -0.00125 -0.006496875 0.025641
19 1 -0.036028125 -0.00125 -0.005315625 0.0185185
20 1 -0.036028125 -0.00125 -0.004134375 0.0001
21 1 -0.036028125 -0.00125 -0.002953125 0.125356
22 1 -0.036028125 -0.00125 -0.001771875 0.435897
23 1 -0.036028125 -0.00125 -0.000590625 0.5
24 1 -0.036028125 -0.00125 0.000590625 0.27592
25 1 -0.036028125 -0.00125 0.001771875 0.0001
26 1 -0.036028125 -0.00125 0.002953125 0.0001
27 1 -0.036028125 -0.00125 0.004134375 0.062678
28 1 -0.036028125 -0.00125 0.005315625 0.136752
29 1 -0.036028125 -0.00125 0.006496875 0.074074
30 1 -0.036028125 -0.00125 0.007678125 0.0238095
31 1 -0.036028125 0.000116666666667 -0.007678125 0.128571
32 1 -0.036028125 0.000116666666667 -0.006496875 0.025641
33 1 -0.036028125 0.000116666666667 -0.005315625 0.0185185
34 1 -0.036028125 0.000116666666667 -0.004134375 0.0001
35 1 -0.036028125 0.000116666666667 -0.002953125 0.125356
36 1 -0.036028125 0.000116666666667 -0.001771875 0.435897
37 1 -0.036028125 0.000116666666667 -0.000590625 0.5
38 1 -0.036028125 0.000116666666667 0.000590625 0.27592
39 1 -0.036028125 0.000116666666667 0.001771875 0.0001
40 1 -0.036028125 0.000116666666667 0.002953125 0.0001
41 1 -0.036028125 0.000116666666667 0.004134375 0.062678
42 1 -0.036028125 0.000116666666667 0.005315625 0.136752
43 1 -0.036028125 0.000116666666667 0.006496875 0.074074
44 1 -0.036028125 0.000116666666667 0.007678125 0.0238095
45 1 -0.034846875 -0.00261666666667 -0.011221875 0.238305
46 1 -0.034846875 -0.00261666666667 -0.010040625 0.0847578
47 1 -0.034846875 -0.00261666666667 -0.008859375 0.302055
48 1 -0.034846875 -0.00261666666667 -0.007678125 0.364903
49 1 -0.034846875 -0.00261666666667 -0.006496875 0.0384616
50 1 -0.034846875 -0.00261666666667 -0.005315625 0.0128205
51 1 -0.034846875 -0.00261666666667 -0.004134375 0.0883191
52 1 -0.034846875 -0.00261666666667 -0.002953125 0.102564
53 1 -0.034846875 -0.00261666666667 -0.001771875 0.190883
54 1 -0.034846875 -0.00261666666667 -0.000590625 0.430199
55 1 -0.034846875 -0.00261666666667 0.000590625 0.383903
56 1 -0.034846875 -0.00261666666667 0.001771875 0.0441596
57 1 -0.034846875 -0.00261666666667 0.002953125 0.11396
58 1 -0.034846875 -0.00261666666667 0.004134375 0.246439
59 1 -0.034846875 -0.00261666666667 0.005315625 0.34188
60 1 -0.034846875 -0.00261666666667 0.006496875 0.0698005
61 1 -0.034846875 -0.00261666666667 0.007678125 0.0138889
62 1 -0.034846875 -0.00261666666667 0.008859375 0.0666667
63 1 -0.034846875 -0.00261666666667 0.010040625 0.074074
64 1 -0.034846875 -0.00261666666667 0.011221875 0.128571
65 1 -0.034846875 -0.00125 -0.011221875 0.238305
66 1 -0.034846875 -0.00125 -0.010040625 0.0847578
67 1 -0.034846875 -0.00125 -0.008859375 0.302055
68 1 -0.034846875 -0.00125 -0.007678125 0.364903
69 1 -0.034846875 -0.00125 -0.006496875 0.0384616
70 1 -0.034846875 -0.00125 -0.005315625 0.0128205
71 1 -0.034846875 -0.00125 -0.004134375 0.0883191
72 1 -0.034846875 -0.00125 -0.002953125 0.102564
73 1 -0.034846875 -0.00125 -0.001771875 0.190883
74 1 -0.034846875 -0.00125 -0.000590625 0.430199
75 1 -0.034846875 -0.00125 0.000590625 0.383903
76 1 -0.034846875 -0.00125 0.001771875 0.0441596
77 1 -0.034846875 -0.00125 0.002953125 0.11396
78 1 -0.034846875 -0.00125 0.004134375 0.246439
79 1 -0.034846875 -0.00125 0.005315625 0.34188
80 1 -0.034846875 -0.00125 0.006496875 0.0698005
81 1 -0.034846875 -0.00125 0.007678125 0.0138889
82 1 -0.034846875 -0.00125 0.008859375 0.0666667
83 1 -0.034846875 -0.00125 0.010040625 0.074074
84 1 -0.034846875 -0.00125 0.011221875 0.128571
85 1 -0.034846875 0.000116666666667 -0.011221875 0.238305
86 1 -0.034846875 0.000116666666667 -0.010040625 0.0847578
87 1 -0.034846875 0.000116666666667 -0.008859375 0.302055
88 1 -0.034846875 0.000116666666667 -0.007678125 0.364903
89 1 -0.034846875 0.000116666666667 -0.006496875 0.0384616
90 1 -0.034846875 0.000116666666667 -0.005315625 0.0128205
91 1 -0.034846875 0.000116666666667 -0.004134375 0.0883191
92 1 -0.034846875 0.000116666666667 -0.002953125 0.102564
93 1 -0.034846875 0.000116666666667 -0.001771875 0.190883
94 1 -0.034846875 0.000116666666667 -0.000590625 0.430199
95 1 -0.034846875 0.000116666666667 0.000590625 0.383903
96 1 -0.034846875 0.000116666666667 0.001771875 0.0441596
97 1 -0.034846875 0.000116666666667 0.002953125 0.11396
98 1 -0.034846875 0.000116666666667 0.004134375 0.246439
99 1 -0.034846875 0.000116666666667 0.005315625 0.34188
100 1 -0.034846875 0.000116666666667 0.006496875 0.0698005
101 1 -0.034846875 0.000116666666667 0.007678125 0.0138889
102 1 -0.034846875 0.000116666666667 0.008859375 0.0666667
103 1 -0.034846875 0.000116666666667 0.010040625 0.074074
104 1 -0.034846875 0.000116666666667 0.011221875 0.128571
105 1 -0.033665625 -0.00261666666667 -0.013584375 0.0555555
106 1 -0.033665625 -0.00261666666667 -0.012403125 0.244302
107 1 -0.033665625 -0.00261666666667 -0.011221875 0.5
108 1 -0.033665625 -0.00261666666667 -0.010040625 0.22792
109 1 -0.033665625 -0.00261666666667 -0.008859375 0.404558
110 1 -0.033665625 -0.00261666666667 -0.007678125 0.702279
111 1 -0.033665625 -0.00261666666667 -0.006496875 0.0881895
112 1 -0.033665625 -0.00261666666667 -0.005315625 0.0220798
113 1 -0.033665625 -0.00261666666667 -0.004134375 0.123219
114 1 -0.033665625 -0.00261666666667 -0.002953125 0.376781
115 1 -0.033665625 -0.00261666666667 -0.001771875 0.371082
116 1 -0.033665625 -0.00261666666667 -0.000590625 0.446581
117 1 -0.033665625 -0.00261666666667 0.000590625 0.350071
118 1 -0.033665625 -0.00261666666667 0.001771875 0.297721
119 1 -0.033665625 -0.00261666666667 0.002953125 0.400997
120 1 -0.033665625 -0.00261666666667 0.004134375 0.45584
121 1 -0.033665625 -0.00261666666667 0.005315625 0.361823
122 1 -0.033665625 -0.00261666666667 0.006496875 0.222222
123 1 -0.033665625 -0.00261666666667 0.007678125 0.16631
124 1 -0.033665625 -0.00261666666667 0.008859375 0.231481
125 1 -0.033665625 -0.00261666666667 0.010040625 0.257122
126 1 -0.033665625 -0.00261666666667 0.011221875 0.381997
127 1 -0.033665625 -0.00261666666667 0.012403125 0.371205
128 1 -0.033665625 -0.00261666666667 0.013584375 0.183507
129 1 -0.033665625 -0.00125 -0.013584375 0.0555555
130 1 -0.033665625 -0.00125 -0.012403125 0.244302
131 1 -0.033665625 -0.00125 -0.011221875 0.5
132 1 -0.033665625 -0.00125 -0.010040625 0.22792
133 1 -0.033665625 -0.00125 -0.008859375 0.404558
134 1 -0.033665625 -0.00125 -0.007678125 0.702279
135 1 -0.033665625 -0.00125 -0.006496875 0.0881895
136 1 -0.033665625 -0.00125 -0.005315625 0.0220798
137 1 -0.033665625 -0.00125 -0.004134375 0.123219
138 1 -0.033665625 -0.00125 -0.002953125 0.376781
139 1 -0.033665625 -0.00125 -0.001771875 0.371082
140 1 -0.033665625 -0.00125 -0.000590625 0.446581
141 1 -0.033665625 -0.00125 0.000590625 0.350071
142 1 -0.033665625 -0.00125 0.001771875 0.297721
143 1 -0.033665625 -0.00125 0.002953125 0.400997
144 1 -0.033665625 -0.00125 0.004134375 0.45584
145 1 -0.033665625 -0.00125 0.005315625 0.361823
146 1 -0.033665625 -0.00125 0.006496875 0.222222
147 1 -0.033665625 -0.00125 0.007678125 0.16631
148 1 -0.033665625 -0.00125 0.008859375 0.231481
149 1 -0.033665625 -0.00125 0.010040625 0.257122
150 1 -0.033665625 -0.00125 0.011221875 0.381997
151 1 -0.033665625 -0.00125 0.012403125 0.371205
152 1 -0.033665625 -0.00125 0.013584375 0.183507
153 1 -0.033665625 0.000116666666667 -0.013584375 0.0555555
154 1 -0.033665625 0.000116666666667 -0.012403125 0.244302
155 1 -0.033665625 0.000116666666667 -0.011221875 0.5
156 1 -0.033665625 0.000116666666667 -0.010040625 0.22792
157 1 -0.033665625 0.000116666666667 -0.008859375 0.404558
158 1 -0.033665625 0.000116666666667 -0.007678125 0.702279
159 1 -0.033665625 0.000116666666667 -0.006496875 0.0881895
160 1 -0.033665625 0.000116666666667 -0.005315625 0.0220798
161 1 -0.033665625 0.000116666666667 -0.004134375 0.123219
162 1 -0.033665625 0.000116666666667 -0.002953125 0.376781
163 1 -0.033665625 0.000116666666667 -0.001771875 0.371082
164 1 -0.033665625 0.000116666666667 -0.000590625 0.446581
165 1 -0.033665625 0.000116666666667 0.000590625 0.350071
166 1 -0.033665625 0.000116666666667 0.001771875 0.297721
167 1 -0.033665625 0.000116666666667 0.002953125 0.400997
168 1 -0.033665625 0.000116666666667 0.004134375 0.45584
169 1 -0.033665625 0.000116666666667 0.005315625 0.361823
170 1 -0.033665625 0.000116666666667 0.006496875 0.222222
171 1 -0.033665625 0.000116666666667 0.007678125 0.16631
172 1 -0.033665625 0.000116666666667 0.008859375 0.231481
173 1 -0.033665625 0.000116666666667 0.010040625 0.257122
174 1 -0.033665625 0.000116666666667 0.011221875 0.381997
175 1 -0.033665625 0.000116666666667 0.012403125 0.371205
176 1 -0.033665625 0.000116666666667 0.013584375 0.183507
177 1 -0.032484375 -0.00261666666667 -0.018309375 0.209524
178 1 -0.032484375 -0.00261666666667 -0.017128125 0.395238
179 1 -0.032484375 -0.00261666666667 -0.015946875 0.403595
180 1 -0.032484375 -0.00261666666667 -0.014765625 0.462963
181 1 -0.032484375 -0.00261666666667 -0.013584375 0.316239
182 1 -0.032484375 -0.00261666666667 -0.012403125 0.393162
183 1 -0.032484375 -0.00261666666667 -0.011221875 0.437322
184 1 -0.032484375 -0.00261666666667 -0.010040625 0.537037
185 1 -0.032484375 -0.00261666666667 -0.008859375 0.45584
186 1 -0.032484375 -0.00261666666667 -0.007678125 0.418803
187 1 -0.032484375 -0.00261666666667 -0.006496875 0.0790598
188 1 -0.032484375 -0.00261666666667 -0.005315625 0.304843
189 1 -0.032484375 -0.00261666666667 -0.004134375 0.669516
190 1 -0.032484375 -0.00261666666667 -0.002953125 0.709402
191 1 -0.032484375 -0.00261666666667 -0.001771875 0.532763
192 1 -0.032484375 -0.00261666666667 -0.000590625 0.551282
193 1 -0.032484375 -0.00261666666667 0.000590625 0.396724
194 1 -0.032484375 -0.00261666666667 0.001771875 0.569801
195 1 -0.032484375 -0.00261666666667 0.002953125 0.481481
196 1 -0.032484375 -0.00261666666667 0.004134375 0.562678
197 1 -0.032484375 -0.00261666666667 0.005315625 0.5
198 1 -0.032484375 -0.00261666666667 0.006496875 0.323362
199 1 -0.032484375 -0.00261666666667 0.007678125 0.329059
200 1 -0.032484375 -0.00261666666667 0.008859375 0.418803
201 1 -0.032484375 -0.00261666666667 0.010040625 0.393162
202 1 -0.032484375 -0.00261666666667 0.011221875 0.34188
203 1 -0.032484375 -0.00261666666667 0.012403125 0.165242
204 1 -0.032484375 -0.00261666666667 0.013584375 0.273504
205 1 -0.032484375 -0.00261666666667 0.014765625 0.584046
206 1 -0.032484375 -0.00261666666667 0.015946875 0.620915
207 1 -0.032484375 -0.00261666666667 0.017128125 0.419048
208 1 -0.032484375 -0.00261666666667 0.018309375 0.690476
209 1 -0.032484375 -0.00125 -0.018309375 0.209524
210 1 -0.032484375 -0.00125 -0.017128125 0.395238
211 1 -0.032484375 -0.00125 -0.015946875 0.403595
212 1 -0.032484375 -0.00125 -0.014765625 0.462963
213 1 -0.032484375 -0.00125 -0.013584375 0.316239
214 1 -0.032484375 -0.00125 -0.012403125 0.393162
215 1 -0.032484375 -0.00125 -0.011221875 0.437322
216 1 -0.032484375 -0.00125 -0.010040625 0.537037
217 1 -0.032484375 -0.00125 -0.008859375 0.45584
218 1 -0.032484375 -0.00125 -0.007678125 0.418803
219 1 -0.032484375 -0.00125 -0.006496875 0.0790598
220 1 -0.032484375 -0.00125 -0.005315625 0.304843
221 1 -0.032484375 -0.00125 -0.004134375 0.669516
222 1 -0.032484375 -0.00125 -0.002953125 0.709402
223 1 -0.032484375 -0.00125 -0.001771875 0.532763
224 1 -0.032484375 -0.00125 -0.000590625 0.551282
225 1 -0.032484375 -0.00125 0.000590625 0.396724
226 1 -0.032484375 -0.00125 0.001771875 0.569801
227 1 -0.032484375 -0.00125 0.002953125 0.481481
228 1 -0.032484375 -0.00125 0.004134375 0.562678
229 1 -0.032484375 -0.00125 0.005315625 0.5
230 1 -0.032484375 -0.00125 0.006496875 0.323362
231 1 -0.032484375 -0.00125 0.007678125 0.329059
232 1 -0.032484375 -0.00125 0.008859375 0.418803
233 1 -0.032484375 -0.00125 0.010040625 0.393162
234 1 -0.032484375 -0.00125 0.011221875 0.34188
235 1 -0.032484375 -0.00125 0.012403125 0.165242
236 1 -0.032484375 -0.00125 0.013584375 0.273504
237 1 -0.032484375 -0.00125 0.014765625 0.584046
238 1 -0.032484375 -0.00125 0.015946875 0.620915
239 1 -0.032484375 -0.00125 0.017128125 0.419048
240 1 -0.032484375 -0.00125 0.018309375 0.690476
241 1 -0.032484375 0.000116666666667 -0.018309375 0.209524
242 1 -0.032484375 0.000116666666667 -0.017128125 0.395238
243 1 -0.032484375 0.000116666666667 -0.015946875 0.403595
244 1 -0.032484375 0.000116666666667 -0.014765625 0.462963
245 1 -0.032484375 0.000116666666667 -0.013584375 0.316239
246 1 -0.032484375 0.000116666666667 -0.012403125 0.393162
247 1 -0.032484375 0.000116666666667 -0.011221875 0.437322
248 1 -0.032484375 0.000116666666667 -0.010040625 0.537037
249 1 -0.032484375 0.000116666666667 -0.008859375 0.45584
250 1 -0.032484375 0.000116666666667 -0.007678125 0.418803
251 1 -0.032484375 0.000116666666667 -0.006496875 0.0790598
252 1 -0.032484375 0.000116666666667 -0.005315625 0.304843
253 1 -0.032484375 0.000116666666667 -0.004134375 0.669516
254 1 -0.032484375 0.000116666666667 -0.002953125 0.709402
255 1 -0.032484375 0.000116666666667 -0.001771875 0.532763
256 1 -0.032484375 0.000116666666667 -0.000590625 0.551282
257 1 -0.032484375 0.000116666666667 0.000590625 0.396724
258 1 -0.032484375 0.000116666666667 0.001771875 0.569801
259 1 -0.032484375 0.000116666666667 0.002953125 0.481481
260 1 -0.032484375 0.000116666666667 0.004134375 0.562678
261 1 -0.032484375 0.000116666666667 0.005315625 0.5
262 1 -0.032484375 0.000116666666667 0.006496875 0.323362
263 1 -0.032484375 0.000116666666667 0.007678125 0.329059
264 1 -0.032484375 0.000116666666667 0.008859375 0.418803
265 1 -0.032484375 0.000116666666667 0.010040625 0.393162
266 1 -0.032484375 0.000116666666667 0.011221875 0.34188
267 1 -0.032484375 0.000116666666667 0.012403125 0.165242
268 1 -0.032484375 0.000116666666667 0.013584375 0.273504
269 1 -0.032484375 0.000116666666667 0.014765625 0.584046
270 1 -0.032484375 0.000116666666667 0.015946875 0.620915
271 1 -0.032484375 0.000116666666667 0.017128125 0.419048
272 1 -0.032484375 0.000116666666667 0.018309375 0.690476
273 1 -0.031303125 -0.00261666666667 -0.019490625 0.12619
274 1 -0.031303125 -0.00261666666667 -0.018309375 0.236928
275 1 -0.031303125 -0.00261666666667 -0.017128125 0.488604
276 1 -0.031303125 -0.00261666666667 -0.015946875 0.45584
277 1 -0.031303125 -0.00261666666667 -0.014765625 0.672365
278 1 -0.031303125 -0.00261666666667 -0.013584375 0.672365
279 1 -0.031303125 -0.00261666666667 -0.012403125 0.446581
280 1 -0.031303125 -0.00261666666667 -0.011221875 0.551282
281 1 -0.031303125 -0.00261666666667 -0.010040625 0.632479
282 1 -0.031303125 -0.00261666666667 -0.008859375 0.753561
283 1 -0.031303125 -0.00261666666667 -0.007678125 0.507123
284 1 -0.031303125 -0.00261666666667 -0.006496875 0.354701
285 1 -0.031303125 -0.00261666666667 -0.005315625 0.581197
286 1 -0.031303125 -0.00261666666667 -0.004134375 0.584046
287 1 -0.031303125 -0.00261666666667 -0.002953125 0.45584
288 1 -0.031303125 -0.00261666666667 -0.001771875 0.507122
289 1 -0.031303125 -0.00261666666667 -0.000590625 0.529915
290 1 -0.031303125 -0.00261666666667 0.000590625 0.544159
291 1 -0.031303125 -0.00261666666667 0.001771875 0.746439
292 1 -0.031303125 -0.00261666666667 0.002953125 0.606838
293 1 -0.031303125 -0.00261666666667 0.004134375 0.539886
294 1 -0.031303125 -0.00261666666667 0.005315625 0.38604
295 1 -0.031303125 -0.00261666666667 0.006496875 0.330484
296 1 -0.031303125 -0.00261666666667 0.007678125 0.36396
297 1 -0.031303125 -0.00261666666667 0.008859375 0.367521
298 1 -0.031303125 -0.00261666666667 0.010040625 0.411681
299 1 -0.031303125 -0.00261666666667 0.011221875 0.437322
300 1 -0.031303125 -0.00261666666667 0.012403125 0.209402
301 1 -0.031303125 -0.00261666666667 0.013584375 0.453704
302 1 -0.031303125 -0.00261666666667 0.014765625 0.595442
303 1 -0.031303125 -0.00261666666667 0.015946875 0.474359
304 1 -0.031303125 -0.00261666666667 0.017128125 0.349003
305 1 -0.031303125 -0.00261666666667 0.018309375 0.320261
306 1 -0.031303125 -0.00261666666667 0.019490625 0.12381
307 1 -0.031303125 -0.00125 -0.019490625 0.12619
308 1 -0.031303125 -0.00125 -0.018309375 0.236928
309 1 -0.031303125 -0.00125 -0.017128125 0.488604
310 1 -0.031303125 -0.00125 -0.015946875 0.45584
311 1 -0.031303125 -0.00125 -0.014765625 0.672365
312 1 -0.031303125 -0.00125 -0.013584375 0.672365
313 1 -0.031303125 -0.00125 -0.012403125 0.446581
314 1 -0.031303125 -0.00125 -0.011221875 0.551282
315 1 -0.031303125 -0.00125 -0.010040625 0.632479
316 1 -0.031303125 -0.00125 -0.008859375 0.753561
317 1 -0.031303125 -0.00125 -0.007678125 0.507123
318 1 -0.031303125 -0.00125 -0.006496875 0.354701
319 1 -0.031303125 -0.00125 -0.005315625 0.581197
320 1 -0.031303125 -0.00125 -0.004134375 0.584046
321 1 -0.031303125 -0.00125 -0.002953125 0.45584
322 1 -0.031303125 -0.00125 -0.001771875 0.507122
323 1 -0.031303125 -0.00125 -0.000590625 0.529915
324 1 -0.031303125 -0.00125 0.000590625 0.544159
325 1 -0.031303125 -0.00125 0.001771875 0.746439
326 1 -0.031303125 -0.00125 0.002953125 0.606838
327 1 -0.031303125 -0.00125 0.004134375 0.539886
328 1 -0.031303125 -0.00125 0.005315625 0.38604
329 1 -0.031303125 -0.00125 0.006496875 0.330484
330 1 -0.031303125 -0.00125 0.007678125 0.36396
331 1 -0.031303125 -0.00125 0.008859375 0.367521
332 1 -0.031303125 -0.00125 0.010040625 0.411681
333 1 -0.031303125 -0.00125 0.011221875 0.437322
334 1 -0.031303125 -0.00125 0.012403125 0.209402
335 1 -0.031303125 -0.00125 0.013584375 0.453704
336 1 -0.031303125 -0.00125 0.014765625 0.595442
337 1 -0.031303125 -0.00125 0.015946875 0.474359
338 1 -0.031303125 -0.00125 0.017128125 0.349003
339 1 -0.031303125 -0.00125 0.018309375 0.320261
340 1 -0.031303125 -0.00125 0.019490625 0.12381
341 1 -0.031303125 0.000116666666667 -0.019490625 0.12619
342 1 -0.031303125 0.000116666666667 -0.018309375 0.236928
343 1 -0.031303125 0.000116666666667 -0.017128125 0.488604
344 1 -0.031303125 0.000116666666667 -0.015946875 0.45584
345 1 -0.031303125 0.000116666666667 -0.014765625 0.672365
346 1 -0.031303125 0.000116666666667 -0.013584375 0.672365
347 1 -0.031303125 0.000116666666667 -0.012403125 0.446581
348 1 -0.031303125 0.000116666666667 -0.011221875 0.551282
349 1 -0.031303125 0.000116666666667 -0.010040625 0.632479
350 1 -0.031303125 0.000116666666667 -0.008859375 0.753561
351 1 -0.031303125 0.000116666666667 -0.007678125 0.507123
352 1 -0.031303125 0.000116666666667 -0.006496875 0.354701
353 1 -0.031303125 0.000116666666667 -0.005315625 0.581197
354 1 -0.031303125 0.000116666666667 -0.004134375 0.584046
355 1 -0.031303125 0.000116666666667 -0.002953125 0.45584
356 1 -0.031303125 0.000116666666667 -0.001771875 0.507122
357 1 -0.031303125 0.000116666666667 -0.000590625 0.529915
358 1 -0.031303125 0.000116666666667 0.000590625 0.544159
359 1 -0.031303125 0.000116666666667 0.001771875 0.746439
360 1 -0.031303125 0.000116666666667 0.002953125 0.606838
361 1 -0.031303125 0.000116666666667 0.004134375 0.539886
362 1 -0.031303125 0.000116666666667 0.005315625 0.38604
363 1 -0.031303125 0.000116666666667 0.006496875 0.330484
364 1 -0.031303125 0.000116666666667 0.007678125 0.36396
365 1 -0.031303125 0.000116666666667 0.008859375 0.367521
366 1 -0.031303125 0.000116666666667 0.010040625 0.411681
367 1 -0.031303125 0.000116666666667 0.011221875 0.437322
368 1 -0.031303125 0.000116666666667 0.012403125 0.209402
369 1 -0.031303125 0.000116666666667 0.013584375 0.453704
370 1 -0.031303125 0.000116666666667 0.014765625 0.595442
371 1 -0.031303125 0.000116666666667 0.015946875 0.474359
372 1 -0.031303125 0.000116666666667 0.017128125 0.349003
373 1 -0.031303125 0.000116666666667 0.018309375 0.320261
374 1 -0.031303125 0.000116666666667 0.019490625 0.12381
375 1 -0.030121875 -0.00261666666667 -0.020671875 0.113636
376 1 -0.030121875 -0.00261666666667 -0.019490625 0.0349003
377 1 -0.030121875 -0.00261666666667 -0.018309375 0.246439
378 1 -0.030121875 -0.00261666666667 -0.017128125 0.423077
379 1 -0.030121875 -0.00261666666667 -0.015946875 0.492877
380 1 -0.030121875 -0.00261666666667 -0.014765625 0.551282
381 1 -0.030121875 -0.00261666666667 -0.013584375 0.462963
382 1 -0.030121875 -0.00261666666667 -0.012403125 0.2849
383 1 -0.030121875 -0.00261666666667 -0.011221875 0.61396
384 1 -0.030121875 -0.00261666666667 -0.010040625 0.492878
385 1 -0.030121875 -0.00261666666667 -0.008859375 0.558405
386 1 -0.030121875 -0.00261666666667 -0.007678125 0.709402
387 1 -0.030121875 -0.00261666666667 -0.006496875 0.769943
388 1 -0.030121875 -0.00261666666667 -0.005315625 0.683761
389 1 -0.030121875 -0.00261666666667 -0.004134375 0.555556
390 1 -0.030121875 -0.00261666666667 -0.002953125 0.650997
391 1 -0.030121875 -0.00261666666667 -0.001771875 0.430199
392 1 -0.030121875 -0.00261666666667 -0.000590625 0.555556
393 1 -0.030121875 -0.00261666666667 0.000590625 0.597579
394 1 -0.030121875 -0.00261666666667 0.001771875 0.54416
395 1 -0.030121875 -0.00261666666667 0.002953125 0.437322
396 1 -0.030121875 -0.00261666666667 0.004134375 0.253561
397 1 -0.030121875 -0.00261666666667 0.005315625 0.279202
398 1 -0.030121875 -0.00261666666667 0.006496875 0.393162
399 1 -0.030121875 -0.00261666666667 0.007678125 0.402422
400 1 -0.030121875 -0.00261666666667 0.008859375 0.404558
401 1 -0.030121875 -0.00261666666667 0.010040625 0.404558
402 1 -0.030121875 -0.00261666666667 0.011221875 0.595442
403 1 -0.030121875 -0.00261666666667 0.012403125 0.45584
404 1 -0.030121875 -0.00261666666667 0.013584375 0.576923
405 1 -0.030121875 -0.00261666666667 0.014765625 0.562678
406 1 -0.030121875 -0.00261666666667 0.015946875 0.418803
407 1 -0.030121875 -0.00261666666667 0.017128125 0.330484
408 1 -0.030121875 -0.00261666666667 0.018309375 0.165242
409 1 -0.030121875 -0.00261666666667 0.019490625 0.0441596
410 1 -0.030121875 -0.00261666666667 0.020671875 0.109551
411 1 -0.030121875 -0.00125 -0.020671875 0.113636
412 1 -0.030121875 -0.00125 -0.019490625 0.0349003
413 1 -0.030121875 -0.00125 -0.018309375 0.246439
414 1 -0.030121875 -0.00125 -0.017128125 0.423077
415 1 -0.030121875 -0.00125 -0.015946875 0.492877
416 1 -0.030121875 -0.00125 -0.014765625 0.551282
417 1 -0.030121875 -0.00125 -0.013584375 0.462963
418 1 -0.030121875 -0.00125 -0.012403125 0.2849
419 1 -0.030121875 -0.00125 -0.011221875 0.61396
420 1 -0.030121875 -0.00125 -0.010040625 0.492878
421 1 -0.030121875 -0.00125 -0.008859375 0.558405
422 1 -0.030121875 -0.00125 -0.007678125 0.709402
423 1 -0.030121875 -0.00125 -0.006496875 0.769943
424 1 -0.030121875 -0.00125 -0.005315625 0.683761
425 1 -0.030121875 -0.00125 -0.004134375 0.555556
426 1 -0.030121875 -0.00125 -0.002953125 0.650997
427 1 -0.030121875 -0.00125 -0.001771875 0.430199
428 1 -0.030121875 -0.00125 -0.000590625 0.555556
429 1 -0.030121875 -0.00125 0.000590625 0.597579
430 1 -0.030121875 -0.00125 0.001771875 0.54416
431 1 -0.030121875 -0.00125 0.002953125 0.437322
432 1 -0.030121875 -0.00125 0.004134375 0.253561
433 1 -0.030121875 -0.00125 0.005315625 0.279202
434 1 -0.030121875 -0.00125 0.006496875 0.393162
435 1 -0.030121875 -0.00125 0.007678125 0.402422
436 1 -0.030121875 -0.00125 0.008859375 0.404558
437 1 -0.030121875 -0.00125 0.010040625 0.404558
438 1 -0.030121875 -0.00125 0.011221875 0.595442
439 1 -0.030121875 -0.00125 0.012403125 0.45584
440 1 -0.030121875 -0.00125 0.013584375 0.576923
441 1 -0.030121875 -0.00125 0.014765625 0.562678
442 1 -0.030121875 -0.00125 0.015946875 0.418803
443 1 -0.030121875 -0.00125 0.017128125 0.330484
444 1 -0.030121875 -0.00125 0.018309375 0.165242
445 1 -0.030121875 -0.00125 0.019490625 0.0441596
446 1 -0.030121875 -0.00125 0.020671875 0.109551
447 1 -0.030121875 0.000116666666667 -0.020671875 0.113636
448 1 -0.030121875 0.000116666666667 -0.019490625 0.0349003
449 1 -0.030121875 0.000116666666667 -0.018309375 0.246439
450 1 -0.030121875 0.000116666666667 -0.017128125 0.423077
451 1 -0.030121875 0.000116666666667 -0.015946875 0.492877
452 1 -0.030121875 0.000116666666667 -0.014765625 0.551282
453 1 -0.030121875 0.000116666666667 -0.013584375 0.462963
454 1 -0.030121875 0.000116666666667 -0.012403125 0.2849
455 1 -0.030121875 0.000116666666667 -0.011221875 0.61396
456 1 -0.030121875 0.000116666666667 -0.010040625 0.492878
457 1 -0.030121875 0.000116666666667 -0.008859375 0.558405
458 1 -0.030121875 0.000116666666667 -0.007678125 0.709402
459 1 -0.030121875 0.000116666666667 -0.006496875 0.769943
460 1 -0.030121875 0.000116666666667 -0.005315625 0.683761
461 1 -0.030121875 0.000116666666667 -0.004134375 0.555556
462 1 -0.030121875 0.000116666666667 -0.002953125 0.650997
463 1 -0.030121875 0.000116666666667 -0.001771875 0.430199
464 1 -0.030121875 0.000116666666667 -0.000590625 0.555556
465 1 -0.030121875 0.000116666666667 0.000590625 0.597579
466 1 -0.030121875 0.000116666666667 0.001771875 0.54416
467 1 -0.030121875 0.000116666666667 0.002953125 0.437322
468 1 -0.030121875 0.000116666666667 0.004134375 0.253561
469 1 -0.030121875 0.000116666666667 0.005315625 0.279202
470 1 -0.030121875 0.000116666666667 0.006496875 0.393162
471 1 -0.030121875 0.000116666666667 0.007678125 0.402422
472 1 -0.030121875 0.000116666666667 0.008859375 0.404558
473 1 -0.030121875 0.000116666666667 0.010040625 0.404558
474 1 -0.030121875 0.000116666666667 0.011221875 0.595442
475 1 -0.030121875 0.000116666666667 0.012403125 0.45584
476 1 -0.030121875 0.000116666666667 0.013584375 0.576923
477 1 -0.030121875 0.000116666666667 0.014765625 0.562678
478 1 -0.030121875 0.000116666666667 0.015946875 0.418803
479 1 -0.030121875 0.000116666666667 0.017128125 0.330484
480 1 -0.030121875 0.000116666666667 0.018309375 0.165242
481 1 -0.030121875 0.000116666666667 0.019490625 0.0441596
482 1 -0.030121875 0.000116666666667 0.020671875 0.109551
483 1 -0.028940625 -0.00261666666667 -0.021853125 0.450646
484 1 -0.028940625 -0.00261666666667 -0.020671875 0.225972
485 1 -0.028940625 -0.00261666666667 -0.019490625 0.032967
486 1 -0.028940625 -0.00261666666667 -0.018309375 0.38604
487 1 -0.028940625 -0.00261666666667 -0.017128125 0.643875
488 1 -0.028940625 -0.00261666666667 -0.015946875 0.581197
489 1 -0.028940625 -0.00261666666667 -0.014765625 0.72792
490 1 -0.028940625 -0.00261666666667 -0.013584375 0.545299
491 1 -0.028940625 -0.00261666666667 -0.012403125 0.752137
492 1 -0.028940625 -0.00261666666667 -0.011221875 0.853633
493 1 -0.028940625 -0.00261666666667 -0.010040625 0.72792
494 1 -0.028940625 -0.00261666666667 -0.008859375 0.739316
495 1 -0.028940625 -0.00261666666667 -0.007678125 0.867521
496 1 -0.028940625 -0.00261666666667 -0.006496875 0.665242
497 1 -0.028940625 -0.00261666666667 -0.005315625 0.551282
498 1 -0.028940625 -0.00261666666667 -0.004134375 0.507123
499 1 -0.028940625 -0.00261666666667 -0.002953125 0.665242
500 1 -0.028940625 -0.00261666666667 -0.001771875 0.481481
501 1 -0.028940625 -0.00261666666667 -0.000590625 0.595442
502 1 -0.028940625 -0.00261666666667 0.000590625 0.709402
503 1 -0.028940625 -0.00261666666667 0.001771875 0.462963
504 1 -0.028940625 -0.00261666666667 0.002953125 0.34188
505 1 -0.028940625 -0.00261666666667 0.004134375 0.297721
506 1 -0.028940625 -0.00261666666667 0.005315625 0.393162
507 1 -0.028940625 -0.00261666666667 0.006496875 0.462963
508 1 -0.028940625 -0.00261666666667 0.007678125 0.34188
509 1 -0.028940625 -0.00261666666667 0.008859375 0.525641
510 1 -0.028940625 -0.00261666666667 0.010040625 0.569801
511 1 -0.028940625 -0.00261666666667 0.011221875 0.665242
512 1 -0.028940625 -0.00261666666667 0.012403125 0.84188
513 1 -0.028940625 -0.00261666666667 0.013584375 0.354701
514 1 -0.028940625 -0.00261666666667 0.014765625 0.260684
515 1 -0.028940625 -0.00261666666667 0.015946875 0.22792
516 1 -0.028940625 -0.00261666666667 0.017128125 0.242165
517 1 -0.028940625 -0.00261666666667 0.018309375 0.121083
518 1 -0.028940625 -0.00261666666667 0.019490625 0.025641
519 1 -0.028940625 -0.00261666666667 0.020671875 0.00925927
520 1 -0.028940625 -0.00261666666667 0.021853125 0.0719697
521 1 -0.028940625 -0.00125 -0.021853125 0.450646
522 1 -0.028940625 -0.00125 -0.020671875 0.225972
523 1 -0.028940625 -0.00125 -0.019490625 0.032967
524 1 -0.028940625 -0.00125 -0.018309375 0.38604
525 1 -0.028940625 -0.00125 -0.017128125 0.643875
526 1 -0.028940625 -0.00125 -0.015946875 0.581197
527 1 -0.028940625 -0.00125 -0.014765625 0.72792
528 1 -0.028940625 -0.00125 -0.013584375 0.545299
529 1 -0.028940625 -0.00125 -0.012403125 0.752137
530 1 -0.028940625 -0.00125 -0.011221875 0.853633
531 1 -0.028940625 -0.00125 -0.010040625 0.72792
532 1 -0.028940625 -0.00125 -0.008859375 0.739316
533 1 -0.028940625 -0.00125 -0.007678125 0.867521
534 1 -0.028940625 -0.00125 -0.006496875 0.665242
535 1 -0.028940625 -0.00125 -0.005315625 0.551282
536 1 -0.028940625 -0.00125 -0.004134375 0.507123
537 1 -0.028940625 -0.00125 -0.002953125 0.665242
538 1 -0.028940625 -0.00125 -0.001771875 0.481481