ITEM: TIMESTEP
0
ITEM: NUMBER OF ATOMS
9240
ITEM: BOX BOUNDS ss ss ss
-3.7007399999999996e-02 3.7007399999999996e-02
-2.0002499999999999e-03 2.5000000000000004e-07
-3.7007399999999996e-02 3.7007399999999996e-02
ITEM: ATOMS id type x y z c_1
0 1 -0.037209375 -0.00261666666667 -0.000590625 0.133333
1 1 -0.037209375 -0.00125 -0.000590625 0.133333
2 1 -0.037209375 0.000116666666667 -0.000590625 0.133333
3 1 -0.036028125 -0.00261666666667 -0.007678125 0.237424
4 1 -0.036028125 -0.00261666666667 -0.006496875 0.037037
5 1 -0.036028125 -0.00261666666667 -0.005315625 0.0001
6 1 -0.036028125 -0.00261666666667 -0.004134375 0.074074
7 1 -0.036028125 -0.00261666666667 -0.002953125 0.099715
8 1 -0.036028125 -0.00261666666667 -0.001771875 0.025641
9 1 -0.036028125 -0.00261666666667 -0.000590625 0.0469697
10 1 -0.036028125 -0.00261666666667 0.000590625 0.338095
11 1 -0.036028125 -0.00261666666667 0.001771875 0.535613
12 1 -0.036028125 -0.00261666666667 0.002953125 0.287749
13 1 -0.036028125 -0.00261666666667 0.004134375 0.025641
14 1 -0.036028125 -0.00261666666667 0.005315625 0.037037
15 1 -0.036028125 -0.00261666666667 0.006496875 0.0185185
16 1 -0.036028125 -0.00261666666667 0.007678125 0.128571
17 1 -0.036028125 -0.00125 -0.007678125 0.237424
18 1 -0.036028125 -0.00125 -0.006496875 0.037037
19 1 -0.036028125 -0.00125 -0.005315625 0.0001
20 1 -0.036028125 -0.00125 -0.004134375 0.074074
21 1 -0.036028125 -0.00125 -0.002953125 0.099715
22 1 -0.036028125 -0.00125 -0.001771875 0.025641
23 1 -0.036028125 -0.00125 -0.000590625 0.0469697
24 1 -0.036028125 -0.00125 0.000590625 0.338095
25 1 -0.036028125 -0.00125 0.001771875 0.535613
26 1 -0.036028125 -0.00125 0.002953125 0.287749
27 1 -0.036028125 -0.00125 0.004134375 0.025641
28 1 -0.036028125 -0.00125 0.005315625 0.037037
29 1 -0.036028125 -0.00125 0.006496875 0.0185185
30 1 -0.036028125 -0.00125 0.007678125 0.128571
31 1 -0.036028125 0.000116666666667 -0.007678125 0.237424
32 1 -0.036028125 0.000116666666667 -0.006496875 0.037037
33 1 -0.036028125 0.000116666666667 -0.005315625 0.0001
34 1 -0.036028125 0.000116666666667 -0.004134375 0.074074
35 1 -0.036028125 0.000116666666667 -0.002953125 0.099715
36 1 -0.036028125 0.000116666666667 -0.001771875 0.025641
37 1 -0.036028125 0.000116666666667 -0.000590625 0.0469697
38 1 -0.036028125 0.000116666666667 0.000590625 0.338095
39 1 -0.036028125 0.000116666666667 0.001771875 0.535613
40 1 -0.036028125 0.000116666666667 0.002953125 0.287749
41 1 -0.036028125 0.000116666666667 0.004134375 0.025641
42 1 -0.036028125 0.000116666666667 0.005315625 0.037037
43 1 -0.036028125 0.000116666666667 0.006496875 0.0185185
44 1 -0.036028125 0.000116666666667 0.007678125 0.128571
45 1 -0.034846875 -0.00261666666667 -0.011221875 0.047619
46 1 -0.034846875 -0.00261666666667 -0.010040625 0.162393
47 1 -0.034846875 -0.00261666666667 -0.008859375 0.614286
48 1 -0.034846875 -0.00261666666667 -0.007678125 0.368862
49 1 -0.034846875 -0.00261666666667 -0.006496875 0.0698005
50 1 -0.034846875 -0.00261666666667 -0.005315625 0.076923
51 1 -0.034846875 -0.00261666666667 -0.004134375 0.0698005
52 1 -0.034846875 -0.00261666666667 -0.002953125 0.051282
53 1 -0.034846875 -0.00261666666667 -0.001771875 0.0698006
54 1 -0.034846875 -0.00261666666667 -0.000590625 0.0918803
55 1 -0.034846875 -0.00261666666667 0.000590625 0.304843
56 1 -0.034846875 -0.00261666666667 0.001771875 0.639601
57 1 -0.034846875 -0.00261666666667 0.002953125 0.316239
58 1 -0.034846875 -0.00261666666667 0.004134375 0.076923
59 1 -0.034846875 -0.00261666666667 0.005315625 0.0698006
60 1 -0.034846875 -0.00261666666667 0.006496875 0.0477208
61 1 -0.034846875 -0.00261666666667 0.007678125 0.094834
62 1 -0.034846875 -0.00261666666667 0.008859375 0.0801384
63 1 -0.034846875 -0.00261666666667 0.010040625 0.0001
64 1 -0.034846875 -0.00261666666667 0.011221875 0.186835
65 1 -0.034846875 -0.00125 -0.011221875 0.047619
66 1 -0.034846875 -0.00125 -0.010040625 0.162393
67 1 -0.034846875 -0.00125 -0.008859375 0.614286
68 1 -0.034846875 -0.00125 -0.007678125 0.368862
69 1 -0.034846875 -0.00125 -0.006496875 0.0698005
70 1 -0.034846875 -0.00125 -0.005315625 0.076923
71 1 -0.034846875 -0.00125 -0.004134375 0.0698005
72 1 -0.034846875 -0.00125 -0.002953125 0.051282
73 1 -0.034846875 -0.00125 -0.001771875 0.0698006
74 1 -0.034846875 -0.00125 -0.000590625 0.0918803
75 1 -0.034846875 -0.00125 0.000590625 0.304843
76 1 -0.034846875 -0.00125 0.001771875 0.639601
77 1 -0.034846875 -0.00125 0.002953125 0.316239
78 1 -0.034846875 -0.00125 0.004134375 0.076923
79 1 -0.034846875 -0.00125 0.005315625 0.0698006
80 1 -0.034846875 -0.00125 0.006496875 0.0477208
81 1 -0.034846875 -0.00125 0.007678125 0.094834
82 1 -0.034846875 -0.00125 0.008859375 0.0801384
83 1 -0.034846875 -0.00125 0.010040625 0.0001
84 1 -0.034846875 -0.00125 0.011221875 0.186835
85 1 -0.034846875 0.000116666666667 -0.011221875 0.047619
86 1 -0.034846875 0.000116666666667 -0.010040625 0.162393
87 1 -0.034846875 0.000116666666667 -0.008859375 0.614286
88 1 -0.034846875 0.000116666666667 -0.007678125 0.368862
89 1 -0.034846875 0.000116666666667 -0.006496875 0.0698005
90 1 -0.034846875 0.000116666666667 -0.005315625 0.076923
91 1 -0.034846875 0.000116666666667 -0.004134375 0.0698005
92 1 -0.034846875 0.000116666666667 -0.002953125 0.051282
93 1 -0.034846875 0.000116666666667 -0.001771875 0.0698006
94 1 -0.034846875 0.000116666666667 -0.000590625 0.0918803
95 1 -0.034846875 0.000116666666667 0.000590625 0.304843
96 1 -0.034846875 0.000116666666667 0.001771875 0.639601
97 1 -0.034846875 0.000116666666667 0.002953125 0.316239
98 1 -0.034846875 0.000116666666667 0.004134375 0.076923
99 1 -0.034846875 0.000116666666667 0.005315625 0.0698006
100 1 -0.034846875 0.000116666666667 0.006496875 0.0477208
101 1 -0.034846875 0.000116666666667 0.007678125 0.094834
102 1 -0.034846875 0.000116666666667 0.008859375 0.0801384
103 1 -0.034846875 0.000116666666667 0.010040625 0.0001
104 1 -0.034846875 0.000116666666667 0.011221875 0.186835
105 1 -0.033665625 -0.00261666666667 -0.013584375 0.128012
106 1 -0.033665625 -0.00261666666667 -0.012403125 0.17851
107 1 -0.033665625 -0.00261666666667 -0.011221875 0.119658
108 1 -0.033665625 -0.00261666666667 -0.010040625 0.0698006
109 1 -0.033665625 -0.00261666666667 -0.008859375 0.139601
110 1 -0.033665625 -0.00261666666667 -0.007678125 0.525641
111 1 -0.033665625 -0.00261666666667 -0.006496875 0.277422
112 1 -0.033665625 -0.00261666666667 -0.005315625 0.13604
113 1 -0.033665625 -0.00261666666667 -0.004134375 0.218661
114 1 -0.033665625 -0.00261666666667 -0.002953125 0.218661
115 1 -0.033665625 -0.00261666666667 -0.001771875 0.231481
116 1 -0.033665625 -0.00261666666667 -0.000590625 0.180912
117 1 -0.033665625 -0.00261666666667 0.000590625 0.437322
118 1 -0.033665625 -0.00261666666667 0.001771875 0.560541
119 1 -0.033665625 -0.00261666666667 0.002953125 0.378205
120 1 -0.033665625 -0.00261666666667 0.004134375 0.303418
121 1 -0.033665625 -0.00261666666667 0.005315625 0.209402
122 1 -0.033665625 -0.00261666666667 0.006496875 0.14708
123 1 -0.033665625 -0.00261666666667 0.007678125 0.147863
124 1 -0.033665625 -0.00261666666667 0.008859375 0.220798
125 1 -0.033665625 -0.00261666666667 0.010040625 0.190883
126 1 -0.033665625 -0.00261666666667 0.011221875 0.481481
127 1 -0.033665625 -0.00261666666667 0.012403125 0.576923
128 1 -0.033665625 -0.00261666666667 0.013584375 0.356712
129 1 -0.033665625 -0.00125 -0.013584375 0.128012
130 1 -0.033665625 -0.00125 -0.012403125 0.17851
131 1 -0.033665625 -0.00125 -0.011221875 0.119658
132 1 -0.033665625 -0.00125 -0.010040625 0.0698006
133 1 -0.033665625 -0.00125 -0.008859375 0.139601
134 1 -0.033665625 -0.00125 -0.007678125 0.525641
135 1 -0.033665625 -0.00125 -0.006496875 0.277422
136 1 -0.033665625 -0.00125 -0.005315625 0.13604
137 1 -0.033665625 -0.00125 -0.004134375 0.218661
138 1 -0.033665625 -0.00125 -0.002953125 0.218661
139 1 -0.033665625 -0.00125 -0.001771875 0.231481
140 1 -0.033665625 -0.00125 -0.000590625 0.180912
141 1 -0.033665625 -0.00125 0.000590625 0.437322
142 1 -0.033665625 -0.00125 0.001771875 0.560541
143 1 -0.033665625 -0.00125 0.002953125 0.378205
144 1 -0.033665625 -0.00125 0.004134375 0.303418
145 1 -0.033665625 -0.00125 0.005315625 0.209402
146 1 -0.033665625 -0.00125 0.006496875 0.14708
147 1 -0.033665625 -0.00125 0.007678125 0.147863
148 1 -0.033665625 -0.00125 0.008859375 0.220798
149 1 -0.033665625 -0.00125 0.010040625 0.190883
150 1 -0.033665625 -0.00125 0.011221875 0.481481
151 1 -0.033665625 -0.00125 0.012403125 0.576923
152 1 -0.033665625 -0.00125 0.013584375 0.356712
153 1 -0.033665625 0.000116666666667 -0.013584375 0.128012
154 1 -0.033665625 0.000116666666667 -0.012403125 0.17851
155 1 -0.033665625 0.000116666666667 -0.011221875 0.119658
156 1 -0.033665625 0.000116666666667 -0.010040625 0.0698006
157 1 -0.033665625 0.000116666666667 -0.008859375 0.139601
158 1 -0.033665625 0.000116666666667 -0.007678125 0.525641
159 1 -0.033665625 0.000116666666667 -0.006496875 0.277422
160 1 -0.033665625 0.000116666666667 -0.005315625 0.13604
161 1 -0.033665625 0.000116666666667 -0.004134375 0.218661
162 1 -0.033665625 0.000116666666667 -0.002953125 0.218661
163 1 -0.033665625 0.000116666666667 -0.001771875 0.231481
164 1 -0.033665625 0.000116666666667 -0.000590625 0.180912
165 1 -0.033665625 0.000116666666667 0.000590625 0.437322
166 1 -0.033665625 0.000116666666667 0.001771875 0.560541
167 1 -0.033665625 0.000116666666667 0.002953125 0.378205
168 1 -0.033665625 0.000116666666667 0.004134375 0.303418
169 1 -0.033665625 0.000116666666667 0.005315625 0.209402
170 1 -0.033665625 0.000116666666667 0.006496875 0.14708
171 1 -0.033665625 0.000116666666667 0.007678125 0.147863
172 1 -0.033665625 0.000116666666667 0.008859375 0.220798
173 1 -0.033665625 0.000116666666667 0.010040625 0.190883
174 1 -0.033665625 0.000116666666667 0.011221875 0.481481
175 1 -0.033665625 0.000116666666667 0.012403125 0.576923
176 1 -0.033665625 0.000116666666667 0.013584375 0.356712
177 1 -0.032484375 -0.00261666666667 -0.018309375 0.0001
178 1 -0.032484375 -0.00261666666667 -0.017128125 0.0001
179 1 -0.032484375 -0.00261666666667 -0.015946875 0.0001
180 1 -0.032484375 -0.00261666666667 -0.014765625 0.0001
181 1 -0.032484375 -0.00261666666667 -0.013584375 0.139601
182 1 -0.032484375 -0.00261666666667 -0.012403125 0.411681
183 1 -0.032484375 -0.00261666666667 -0.011221875 0.411681
184 1 -0.032484375 -0.00261666666667 -0.010040625 0.316239
185 1 -0.032484375 -0.00261666666667 -0.008859375 0.15812
186 1 -0.032484375 -0.00261666666667 -0.007678125 0.437322
187 1 -0.032484375 -0.00261666666667 -0.006496875 0.5
188 1 -0.032484375 -0.00261666666667 -0.005315625 0.235043
189 1 -0.032484375 -0.00261666666667 -0.004134375 0.22792
190 1 -0.032484375 -0.00261666666667 -0.002953125 0.621083
191 1 -0.032484375 -0.00261666666667 -0.001771875 0.495727
192 1 -0.032484375 -0.00261666666667 -0.000590625 0.487179
193 1 -0.032484375 -0.00261666666667 0.000590625 0.632479
194 1 -0.032484375 -0.00261666666667 0.001771875 0.525641
195 1 -0.032484375 -0.00261666666667 0.002953125 0.209402
196 1 -0.032484375 -0.00261666666667 0.004134375 0.216524
197 1 -0.032484375 -0.00261666666667 0.005315625 0.15812
198 1 -0.032484375 -0.00261666666667 0.006496875 0.268518
199 1 -0.032484375 -0.00261666666667 0.007678125 0.488604
200 1 -0.032484375 -0.00261666666667 0.008859375 0.569801
201 1 -0.032484375 -0.00261666666667 0.010040625 0.576923
202 1 -0.032484375 -0.00261666666667 0.011221875 0.588319
203 1 -0.032484375 -0.00261666666667 0.012403125 0.539886
204 1 -0.032484375 -0.00261666666667 0.013584375 0.389601
205 1 -0.032484375 -0.00261666666667 0.014765625 0.297721
206 1 -0.032484375 -0.00261666666667 0.015946875 0.403595
207 1 -0.032484375 -0.00261666666667 0.017128125 0.247619
208 1 -0.032484375 -0.00261666666667 0.018309375 0.17619
209 1 -0.032484375 -0.00125 -0.018309375 0.0001
210 1 -0.032484375 -0.00125 -0.017128125 0.0001
211 1 -0.032484375 -0.00125 -0.015946875 0.0001
212 1 -0.032484375 -0.00125 -0.014765625 0.0001
213 1 -0.032484375 -0.00125 -0.013584375 0.139601
214 1 -0.032484375 -0.00125 -0.012403125 0.411681
215 1 -0.032484375 -0.00125 -0.011221875 0.411681
216 1 -0.032484375 -0.00125 -0.010040625 0.316239
217 1 -0.032484375 -0.00125 -0.008859375 0.15812
218 1 -0.032484375 -0.00125 -0.007678125 0.437322
219 1 -0.032484375 -0.00125 -0.006496875 0.5
220 1 -0.032484375 -0.00125 -0.005315625 0.235043
221 1 -0.032484375 -0.00125 -0.004134375 0.22792
222 1 -0.032484375 -0.00125 -0.002953125 0.621083
223 1 -0.032484375 -0.00125 -0.001771875 0.495727
224 1 -0.032484375 -0.00125 -0.000590625 0.487179
225 1 -0.032484375 -0.00125 0.000590625 0.632479
226 1 -0.032484375 -0.00125 0.001771875 0.525641
227 1 -0.032484375 -0.00125 0.002953125 0.209402
228 1 -0.032484375 -0.00125 0.004134375 0.216524
229 1 -0.032484375 -0.00125 0.005315625 0.15812
230 1 -0.032484375 -0.00125 0.006496875 0.268518
231 1 -0.032484375 -0.00125 0.007678125 0.488604
232 1 -0.032484375 -0.00125 0.008859375 0.569801
233 1 -0.032484375 -0.00125 0.010040625 0.576923
234 1 -0.032484375 -0.00125 0.011221875 0.588319
235 1 -0.032484375 -0.00125 0.012403125 0.539886
236 1 -0.032484375 -0.00125 0.013584375 0.389601
237 1 -0.032484375 -0.00125 0.014765625 0.297721
238 1 -0.032484375 -0.00125 0.015946875 0.403595
239 1 -0.032484375 -0.00125 0.017128125 0.247619
240 1 -0.032484375 -0.00125 0.018309375 0.17619
241 1 -0.032484375 0.000116666666667 -0.018309375 0.0001
242 1 -0.032484375 0.000116666666667 -0.017128125 0.0001
243 1 -0.032484375 0.000116666666667 -0.015946875 0.0001
244 1 -0.032484375 0.000116666666667 -0.014765625 0.0001
245 1 -0.032484375 0.000116666666667 -0.013584375 0.139601
246 1 -0.032484375 0.000116666666667 -0.012403125 0.411681
247 1 -0.032484375 0.000116666666667 -0.011221875 0.411681
248 1 -0.032484375 0.000116666666667 -0.010040625 0.316239
249 1 -0.032484375 0.000116666666667 -0.008859375 0.15812
250 1 -0.032484375 0.000116666666667 -0.007678125 0.437322
251 1 -0.032484375 0.000116666666667 -0.006496875 0.5
252 1 -0.032484375 0.000116666666667 -0.005315625 0.235043
253 1 -0.032484375 0.000116666666667 -0.004134375 0.22792
254 1 -0.032484375 0.000116666666667 -0.002953125 0.621083
255 1 -0.032484375 0.000116666666667 -0.001771875 0.495727
256 1 -0.032484375 0.000116666666667 -0.000590625 0.487179
257 1 -0.032484375 0.000116666666667 0.000590625 0.632479
258 1 -0.032484375 0.000116666666667 0.001771875 0.525641
259 1 -0.032484375 0.000116666666667 0.002953125 0.209402
260 1 -0.032484375 0.000116666666667 0.004134375 0.216524
261 1 -0.032484375 0.000116666666667 0.005315625 0.15812
262 1 -0.032484375 0.000116666666667 0.006496875 0.268518
263 1 -0.032484375 0.000116666666667 0.007678125 0.488604
264 1 -0.032484375 0.000116666666667 0.008859375 0.569801
265 1 -0.032484375 0.000116666666667 0.010040625 0.576923
266 1 -0.032484375 0.000116666666667 0.011221875 0.588319
267 1 -0.032484375 0.000116666666667 0.012403125 0.539886
268 1 -0.032484375 0.000116666666667 0.013584375 0.389601
269 1 -0.032484375 0.000116666666667 0.014765625 0.297721
270 1 -0.032484375 0.000116666666667 0.015946875 0.403595
271 1 -0.032484375 0.000116666666667 0.017128125 0.247619
272 1 -0.032484375 0.000116666666667 0.018309375 0.17619
273 1 -0.031303125 -0.00261666666667 -0.019490625 0.0001
274 1 -0.031303125 -0.00261666666667 -0.018309375 0.0001
275 1 -0.031303125 -0.00261666666667 -0.017128125 0.0001
276 1 -0.031303125 -0.00261666666667 -0.015946875 0.0001
277 1 -0.031303125 -0.00261666666667 -0.014765625 0.025641
278 1 -0.031303125 -0.00261666666667 -0.013584375 0.139601
279 1 -0.031303125 -0.00261666666667 -0.012403125 0.576923
280 1 -0.031303125 -0.00261666666667 -0.011221875 0.690883
281 1 -0.031303125 -0.00261666666667 -0.010040625 0.537037
282 1 -0.031303125 -0.00261666666667 -0.008859375 0.539886
283 1 -0.031303125 -0.00261666666667 -0.007678125 0.584616
284 1 -0.031303125 -0.00261666666667 -0.006496875 0.823718
285 1 -0.031303125 -0.00261666666667 -0.005315625 0.462963
286 1 -0.031303125 -0.00261666666667 -0.004134375 0.418803
287 1 -0.031303125 -0.00261666666667 -0.002953125 0.525641
288 1 -0.031303125 -0.00261666666667 -0.001771875 0.488604
289 1 -0.031303125 -0.00261666666667 -0.000590625 0.39886
290 1 -0.031303125 -0.00261666666667 0.000590625 0.474359
291 1 -0.031303125 -0.00261666666667 0.001771875 0.779202
292 1 -0.031303125 -0.00261666666667 0.002953125 0.532764
293 1 -0.031303125 -0.00261666666667 0.004134375 0.444444
294 1 -0.031303125 -0.00261666666667 0.005315625 0.565527
295 1 -0.031303125 -0.00261666666667 0.006496875 0.494302
296 1 -0.031303125 -0.00261666666667 0.007678125 0.827635
297 1 -0.031303125 -0.00261666666667 0.008859375 0.632479
298 1 -0.031303125 -0.00261666666667 0.010040625 0.562678
299 1 -0.031303125 -0.00261666666667 0.011221875 0.646724
300 1 -0.031303125 -0.00261666666667 0.012403125 0.72792
301 1 -0.031303125 -0.00261666666667 0.013584375 0.604701
302 1 -0.031303125 -0.00261666666667 0.014765625 0.683761
303 1 -0.031303125 -0.00261666666667 0.015946875 0.38604
304 1 -0.031303125 -0.00261666666667 0.017128125 0.374644
305 1 -0.031303125 -0.00261666666667 0.018309375 0.45098
306 1 -0.031303125 -0.00261666666667 0.019490625 0.385714
307 1 -0.031303125 -0.00125 -0.019490625 0.0001
308 1 -0.031303125 -0.00125 -0.018309375 0.0001
309 1 -0.031303125 -0.00125 -0.017128125 0.0001
310 1 -0.031303125 -0.00125 -0.015946875 0.0001
311 1 -0.031303125 -0.00125 -0.014765625 0.025641
312 1 -0.031303125 -0.00125 -0.013584375 0.139601
313 1 -0.031303125 -0.00125 -0.012403125 0.576923
314 1 -0.031303125 -0.00125 -0.011221875 0.690883
315 1 -0.031303125 -0.00125 -0.010040625 0.537037
316 1 -0.031303125 -0.00125 -0.008859375 0.539886
317 1 -0.031303125 -0.00125 -0.007678125 0.584616
318 1 -0.031303125 -0.00125 -0.006496875 0.823718
319 1 -0.031303125 -0.00125 -0.005315625 0.462963
320 1 -0.031303125 -0.00125 -0.004134375 0.418803
321 1 -0.031303125 -0.00125 -0.002953125 0.525641
322 1 -0.031303125 -0.00125 -0.001771875 0.488604
323 1 -0.031303125 -0.00125 -0.000590625 0.39886
324 1 -0.031303125 -0.00125 0.000590625 0.474359
325 1 -0.031303125 -0.00125 0.001771875 0.779202
326 1 -0.031303125 -0.00125 0.002953125 0.532764
327 1 -0.031303125 -0.00125 0.004134375 0.444444
328 1 -0.031303125 -0.00125 0.005315625 0.565527
329 1 -0.031303125 -0.00125 0.006496875 0.494302
330 1 -0.031303125 -0.00125 0.007678125 0.827635
331 1 -0.031303125 -0.00125 0.008859375 0.632479
332 1 -0.031303125 -0.00125 0.010040625 0.562678
333 1 -0.031303125 -0.00125 0.011221875 0.646724
334 1 -0.031303125 -0.00125 0.012403125 0.72792
335 1 -0.031303125 -0.00125 0.013584375 0.604701
336 1 -0.031303125 -0.00125 0.014765625 0.683761
337 1 -0.031303125 -0.00125 0.015946875 0.38604
338 1 -0.031303125 -0.00125 0.017128125 0.374644
339 1 -0.031303125 -0.00125 0.018309375 0.45098
340 1 -0.031303125 -0.00125 0.019490625 0.385714
341 1 -0.031303125 0.000116666666667 -0.019490625 0.0001
342 1 -0.031303125 0.000116666666667 -0.018309375 0.0001
343 1 -0.031303125 0.000116666666667 -0.017128125 0.0001
344 1 -0.031303125 0.000116666666667 -0.015946875 0.0001
345 1 -0.031303125 0.000116666666667 -0.014765625 0.025641
346 1 -0.031303125 0.000116666666667 -0.013584375 0.139601
347 1 -0.031303125 0.000116666666667 -0.012403125 0.576923
348 1 -0.031303125 0.000116666666667 -0.011221875 0.690883
349 1 -0.031303125 0.000116666666667 -0.010040625 0.537037
350 1 -0.031303125 0.000116666666667 -0.008859375 0.539886
351 1 -0.031303125 0.000116666666667 -0.007678125 0.584616
352 1 -0.031303125 0.000116666666667 -0.006496875 0.823718
353 1 -0.031303125 0.000116666666667 -0.005315625 0.462963
354 1 -0.031303125 0.000116666666667 -0.004134375 0.418803
355 1 -0.031303125 0.000116666666667 -0.002953125 0.525641
356 1 -0.031303125 0.000116666666667 -0.001771875 0.488604
357 1 -0.031303125 0.000116666666667 -0.000590625 0.39886
358 1 -0.031303125 0.000116666666667 0.000590625 0.474359
359 1 -0.031303125 0.000116666666667 0.001771875 0.779202
360 1 -0.031303125 0.000116666666667 0.002953125 0.532764
361 1 -0.031303125 0.000116666666667 0.004134375 0.444444
362 1 -0.031303125 0.000116666666667 0.005315625 0.565527
363 1 -0.031303125 0.000116666666667 0.006496875 0.494302
364 1 -0.031303125 0.000116666666667 0.007678125 0.827635
365 1 -0.031303125 0.000116666666667 0.008859375 0.632479
366 1 -0.031303125 0.000116666666667 0.010040625 0.562678
367 1 -0.031303125 0.000116666666667 0.011221875 0.646724
368 1 -0.031303125 0.000116666666667 0.012403125 0.72792
369 1 -0.031303125 0.000116666666667 0.013584375 0.604701
370 1 -0.031303125 0.000116666666667 0.014765625 0.683761
371 1 -0.031303125 0.000116666666667 0.015946875 0.38604
372 1 -0.031303125 0.000116666666667 0.017128125 0.374644
373 1 -0.031303125 0.000116666666667 0.018309375 0.45098
374 1 -0.031303125 0.000116666666667 0.019490625 0.385714
375 1 -0.030121875 -0.00261666666667 -0.020671875 0.0001
376 1 -0.030121875 -0.00261666666667 -0.019490625 0.0001
377 1 -0.030121875 -0.00261666666667 -0.018309375 0.0001
378 1 -0.030121875 -0.00261666666667 -0.017128125 0.025641
379 1 -0.030121875 -0.00261666666667 -0.015946875 0.025641
380 1 -0.030121875 -0.00261666666667 -0.014765625 0.025641
381 1 -0.030121875 -0.00261666666667 -0.013584375 0.0790598
382 1 -0.030121875 -0.00261666666667 -0.012403125 0.279202
383 1 -0.030121875 -0.00261666666667 -0.011221875 0.404558
384 1 -0.030121875 -0.00261666666667 -0.010040625 0.61396
385 1 -0.030121875 -0.00261666666667 -0.008859375 0.481481
386 1 -0.030121875 -0.00261666666667 -0.007678125 0.525641
387 1 -0.030121875 -0.00261666666667 -0.006496875 0.69302
388 1 -0.030121875 -0.00261666666667 -0.005315625 0.569801
389 1 -0.030121875 -0.00261666666667 -0.004134375 0.639601
390 1 -0.030121875 -0.00261666666667 -0.002953125 0.735043
391 1 -0.030121875 -0.00261666666667 -0.001771875 0.606838
392 1 -0.030121875 -0.00261666666667 -0.000590625 0.544159
393 1 -0.030121875 -0.00261666666667 0.000590625 0.45584
394 1 -0.030121875 -0.00261666666667 0.001771875 0.551282
395 1 -0.030121875 -0.00261666666667 0.002953125 0.735043
396 1 -0.030121875 -0.00261666666667 0.004134375 0.65812
397 1 -0.030121875 -0.00261666666667 0.005315625 0.562678
398 1 -0.030121875 -0.00261666666667 0.006496875 0.667379
399 1 -0.030121875 -0.00261666666667 0.007678125 0.695157
400 1 -0.030121875 -0.00261666666667 0.008859375 0.690883
401 1 -0.030121875 -0.00261666666667 0.010040625 0.702279
402 1 -0.030121875 -0.00261666666667 0.011221875 0.683761
403 1 -0.030121875 -0.00261666666667 0.012403125 0.665242
404 1 -0.030121875 -0.00261666666667 0.013584375 0.673077
405 1 -0.030121875 -0.00261666666667 0.014765625 0.746439
406 1 -0.030121875 -0.00261666666667 0.015946875 0.5
407 1 -0.030121875 -0.00261666666667 0.017128125 0.45584
408 1 -0.030121875 -0.00261666666667 0.018309375 0.632479
409 1 -0.030121875 -0.00261666666667 0.019490625 0.572754
410 1 -0.030121875 -0.00261666666667 0.020671875 0.227273
411 1 -0.030121875 -0.00125 -0.020671875 0.0001
412 1 -0.030121875 -0.00125 -0.019490625 0.0001
413 1 -0.030121875 -0.00125 -0.018309375 0.0001
414 1 -0.030121875 -0.00125 -0.017128125 0.025641
415 1 -0.030121875 -0.00125 -0.015946875 0.025641
416 1 -0.030121875 -0.00125 -0.014765625 0.025641
417 1 -0.030121875 -0.00125 -0.013584375 0.0790598
418 1 -0.030121875 -0.00125 -0.012403125 0.279202
419 1 -0.030121875 -0.00125 -0.011221875 0.404558
420 1 -0.030121875 -0.00125 -0.010040625 0.61396
421 1 -0.030121875 -0.00125 -0.008859375 0.481481
422 1 -0.030121875 -0.00125 -0.007678125 0.525641
423 1 -0.030121875 -0.00125 -0.006496875 0.69302
424 1 -0.030121875 -0.00125 -0.005315625 0.569801
425 1 -0.030121875 -0.00125 -0.004134375 0.639601
426 1 -0.030121875 -0.00125 -0.002953125 0.735043
427 1 -0.030121875 -0.00125 -0.001771875 0.606838
428 1 -0.030121875 -0.00125 -0.000590625 0.544159
429 1 -0.030121875 -0.00125 0.000590625 0.45584
430 1 -0.030121875 -0.00125 0.001771875 0.551282
431 1 -0.030121875 -0.00125 0.002953125 0.735043
432 1 -0.030121875 -0.00125 0.004134375 0.65812
433 1 -0.030121875 -0.00125 0.005315625 0.562678
434 1 -0.030121875 -0.00125 0.006496875 0.667379
435 1 -0.030121875 -0.00125 0.007678125 0.695157
436 1 -0.030121875 -0.00125 0.008859375 0.690883
437 1 -0.030121875 -0.00125 0.010040625 0.702279
438 1 -0.030121875 -0.00125 0.011221875 0.683761
439 1 -0.030121875 -0.00125 0.012403125 0.665242
440 1 -0.030121875 -0.00125 0.013584375 0.673077
441 1 -0.030121875 -0.00125 0.014765625 0.746439
442 1 -0.030121875 -0.00125 0.015946875 0.5
443 1 -0.030121875 -0.00125 0.017128125 0.45584
444 1 -0.030121875 -0.00125 0.018309375 0.632479
445 1 -0.030121875 -0.00125 0.019490625 0.572754
446 1 -0.030121875 -0.00125 0.020671875 0.227273
447 1 -0.030121875 0.000116666666667 -0.020671875 0.0001
448 1 -0.030121875 0.000116666666667 -0.019490625 0.0001
449 1 -0.030121875 0.000116666666667 -0.018309375 0.0001
450 1 -0.030121875 0.000116666666667 -0.017128125 0.025641
451 1 -0.030121875 0.000116666666667 -0.015946875 0.025641
452 1 -0.030121875 0.000116666666667 -0.014765625 0.025641
453 1 -0.030121875 0.000116666666667 -0.013584375 0.0790598
454 1 -0.030121875 0.000116666666667 -0.012403125 0.279202
455 1 -0.030121875 0.000116666666667 -0.011221875 0.404558
456 1 -0.030121875 0.000116666666667 -0.010040625 0.61396
457 1 -0.030121875 0.000116666666667 -0.008859375 0.481481
458 1 -0.030121875 0.000116666666667 -0.007678125 0.525641
459 1 -0.030121875 0.000116666666667 -0.006496875 0.69302
460 1 -0.030121875 0.000116666666667 -0.005315625 0.569801
461 1 -0.030121875 0.000116666666667 -0.004134375 0.639601
462 1 -0.030121875 0.000116666666667 -0.002953125 0.735043
463 1 -0.030121875 0.000116666666667 -0.001771875 0.606838
464 1 -0.030121875 0.000116666666667 -0.000590625 0.544159
465 1 -0.030121875 0.000116666666667 0.000590625 0.45584
466 1 -0.030121875 0.000116666666667 0.001771875 0.551282
467 1 -0.030121875 0.000116666666667 0.002953125 0.735043
468 1 -0.030121875 0.000116666666667 0.004134375 0.65812
469 1 -0.030121875 0.000116666666667 0.005315625 0.562678
470 1 -0.030121875 0.000116666666667 0.006496875 0.667379
471 1 -0.030121875 0.000116666666667 0.007678125 0.695157
472 1 -0.030121875 0.000116666666667 0.008859375 0.690883
473 1 -0.030121875 0.000116666666667 0.010040625 0.702279
474 1 -0.030121875 0.000116666666667 0.011221875 0.683761
475 1 -0.030121875 0.000116666666667 0.012403125 0.665242
476 1 -0.030121875 0.000116666666667 0.013584375 0.673077
477 1 -0.030121875 0.000116666666667 0.014765625 0.746439
478 1 -0.030121875 0.000116666666667 0.015946875 0.5
479 1 -0.030121875 0.000116666666667 0.017128125 0.45584
480 1 -0.030121875 0.000116666666667 0.018309375 0.632479
481 1 -0.030121875 0.000116666666667 0.019490625 0.572754
482 1 -0.030121875 0.000116666666667 0.020671875 0.227273
483 1 -0.028940625 -0.00261666666667 -0.021853125 0.030303
484 1 -0.028940625 -0.00261666666667 -0.020671875 0.0001
485 1 -0.028940625 -0.00261666666667 -0.019490625 0.025641
486 1 -0.028940625 -0.00261666666667 -0.018309375 0.139601
487 1 -0.028940625 -0.00261666666667 -0.017128125 0.146724
488 1 -0.028940625 -0.00261666666667 -0.015946875 0.0698006
489 1 -0.028940625 -0.00261666666667 -0.014765625 0.0001
490 1 -0.028940625 -0.00261666666667 -0.013584375 0.139601
491 1 -0.028940625 -0.00261666666667 -0.012403125 0.209402
492 1 -0.028940625 -0.00261666666667 -0.011221875 0.367521
493 1 -0.028940625 -0.00261666666667 -0.010040625 0.646724
494 1 -0.028940625 -0.00261666666667 -0.008859375 0.618234
495 1 -0.028940625 -0.00261666666667 -0.007678125 0.45584
496 1 -0.028940625 -0.00261666666667 -0.006496875 0.731482
497 1 -0.028940625 -0.00261666666667 -0.005315625 0.779202
498 1 -0.028940625 -0.00261666666667 -0.004134375 0.581197
499 1 -0.028940625 -0.00261666666667 -0.002953125 0.797721
500 1 -0.028940625 -0.00261666666667 -0.001771875 0.746439
501 1 -0.028940625 -0.00261666666667 -0.000590625 0.591881
502 1 -0.028940625 -0.00261666666667 0.000590625 0.551282
503 1 -0.028940625 -0.00261666666667 0.001771875 0.514245
504 1 -0.028940625 -0.00261666666667 0.002953125 0.507122
505 1 -0.028940625 -0.00261666666667 0.004134375 0.88604
506 1 -0.028940625 -0.00261666666667 0.005315625 0.84188
507 1 -0.028940625 -0.00261666666667 0.006496875 0.80698
508 1 -0.028940625 -0.00261666666667 0.007678125 0.695157
509 1 -0.028940625 -0.00261666666667 0.008859375 0.702279
510 1 -0.028940625 -0.00261666666667 0.010040625 0.893162
511 1 -0.028940625 -0.00261666666667 0.011221875 0.72792
512 1 -0.028940625 -0.00261666666667 0.012403125 0.595442
513 1 -0.028940625 -0.00261666666667 0.013584375 0.661681
514 1 -0.028940625 -0.00261666666667 0.014765625 0.709402
515 1 -0.028940625 -0.00261666666667 0.015946875 0.767806
516 1 -0.028940625 -0.00261666666667 0.017128125 0.423077
517 1 -0.028940625 -0.00261666666667 0.018309375 0.504273
518 1 -0.028940625 -0.00261666666667 0.019490625 0.536325
519 1 -0.028940625 -0.00261666666667 0.020671875 0.482127
520 1 -0.028940625 -0.00261666666667 0.021853125 0.393939
521 1 -0.028940625 -0.00125 -0.021853125 0.030303
522 1 -0.028940625 -0.00125 -0.020671875 0.0001
523 1 -0.028940625 -0.00125 -0.019490625 0.025641
524 1 -0.028940625 -0.00125 -0.018309375 0.139601
525 1 -0.028940625 -0.00125 -0.017128125 0.146724
526 1 -0.028940625 -0.00125 -0.015946875 0.0698006
527 1 -0.028940625 -0.00125 -0.014765625 0.0001
528 1 -0.028940625 -0.00125 -0.013584375 0.139601
529 1 -0.028940625 -0.00125 -0.012403125 0.209402
530 1 -0.028940625 -0.00125 -0.011221875 0.367521
531 1 -0.028940625 -0.00125 -0.010040625 0.646724
532 1 -0.028940625 -0.00125 -0.008859375 0.618234
533 1 -0.028940625 -0.00125 -0.007678125 0.45584
534 1 -0.028940625 -0.00125 -0.006496875 0.731482
535 1 -0.028940625 -0.00125 -0.005315625 0.779202
536 1 -0.028940625 -0.00125 -0.004134375 0.581197
537 1 -0.028940625 -0.00125 -0.002953125 0.797721
538 1 -0.028940625 -0.00125 -0.001771875 0.746439
539 1 -0.028940625 -0.00125 -0.000590625 0.591881