ITEM: TIMESTEP
0
ITEM: NUMBER OF ATOMS
9240
ITEM: BOX BOUNDS ss ss ss
-3.7007399999999996e-02 3.7007399999999996e-02
-2.0002499999999999e-03 2.5000000000000004e-07
-3.7007399999999996e-02 3.7007399999999996e-02
ITEM: ATOMS id type x y z c_1
0 1 -0.037209375 -0.00261666666667 -0.000590625 1.0
1 1 -0.037209375 -0.00125 -0.000590625 1.0
2 1 -0.037209375 0.000116666666667 -0.000590625 1.0
3 1 -0.036028125 -0.00261666666667 -0.007678125 0.128571
4 1 -0.036028125 -0.00261666666667 -0.006496875 0.037037
5 1 -0.036028125 -0.00261666666667 -0.005315625 0.0185185
6 1 -0.036028125 -0.00261666666667 -0.004134375 0.0001
7 1 -0.036028125 -0.00261666666667 -0.002953125 0.0001
8 1 -0.036028125 -0.00261666666667 -0.001771875 0.225071
9 1 -0.036028125 -0.00261666666667 -0.000590625 0.452381
10 1 -0.036028125 -0.00261666666667 0.000590625 0.220022
11 1 -0.036028125 -0.00261666666667 0.001771875 0.0001
12 1 -0.036028125 -0.00261666666667 0.002953125 0.0001
13 1 -0.036028125 -0.00261666666667 0.004134375 0.0001
14 1 -0.036028125 -0.00261666666667 0.005315625 0.0001
15 1 -0.036028125 -0.00261666666667 0.006496875 0.0001
16 1 -0.036028125 -0.00261666666667 0.007678125 0.0589947
17 1 -0.036028125 -0.00125 -0.007678125 0.128571
18 1 -0.036028125 -0.00125 -0.006496875 0.037037
19 1 -0.036028125 -0.00125 -0.005315625 0.0185185
20 1 -0.036028125 -0.00125 -0.004134375 0.0001
21 1 -0.036028125 -0.00125 -0.002953125 0.0001
22 1 -0.036028125 -0.00125 -0.001771875 0.225071
23 1 -0.036028125 -0.00125 -0.000590625 0.452381
24 1 -0.036028125 -0.00125 0.000590625 0.220022
25 1 -0.036028125 -0.00125 0.001771875 0.0001
26 1 -0.036028125 -0.00125 0.002953125 0.0001
27 1 -0.036028125 -0.00125 0.004134375 0.0001
28 1 -0.036028125 -0.00125 0.005315625 0.0001
29 1 -0.036028125 -0.00125 0.006496875 0.0001
30 1 -0.036028125 -0.00125 0.007678125 0.0589947
31 1 -0.036028125 0.000116666666667 -0.007678125 0.128571
32 1 -0.036028125 0.000116666666667 -0.006496875 0.037037
33 1 -0.036028125 0.000116666666667 -0.005315625 0.0185185
34 1 -0.036028125 0.000116666666667 -0.004134375 0.0001
35 1 -0.036028125 0.000116666666667 -0.002953125 0.0001
36 1 -0.036028125 0.000116666666667 -0.001771875 0.225071
37 1 -0.036028125 0.000116666666667 -0.000590625 0.452381
38 1 -0.036028125 0.000116666666667 0.000590625 0.220022
39 1 -0.036028125 0.000116666666667 0.001771875 0.0001
40 1 -0.036028125 0.000116666666667 0.002953125 0.0001
41 1 -0.036028125 0.000116666666667 0.004134375 0.0001
42 1 -0.036028125 0.000116666666667 0.005315625 0.0001
43 1 -0.036028125 0.000116666666667 0.006496875 0.0001
44 1 -0.036028125 0.000116666666667 0.007678125 0.0589947
45 1 -0.034846875 -0.00261666666667 -0.011221875 0.128571
46 1 -0.034846875 -0.00261666666667 -0.010040625 0.037037
47 1 -0.034846875 -0.00261666666667 -0.008859375 0.37619
48 1 -0.034846875 -0.00261666666667 -0.007678125 0.320261
49 1 -0.034846875 -0.00261666666667 -0.006496875 0.025641
50 1 -0.034846875 -0.00261666666667 -0.005315625 0.0441596
51 1 -0.034846875 -0.00261666666667 -0.004134375 0.088319
52 1 -0.034846875 -0.00261666666667 -0.002953125 0.0441596
53 1 -0.034846875 -0.00261666666667 -0.001771875 0.190883
54 1 -0.034846875 -0.00261666666667 -0.000590625 0.474359
55 1 -0.034846875 -0.00261666666667 0.000590625 0.3198
56 1 -0.034846875 -0.00261666666667 0.001771875 0.025641
57 1 -0.034846875 -0.00261666666667 0.002953125 0.0001
58 1 -0.034846875 -0.00261666666667 0.004134375 0.025641
59 1 -0.034846875 -0.00261666666667 0.005315625 0.0441596
60 1 -0.034846875 -0.00261666666667 0.006496875 0.025641
61 1 -0.034846875 -0.00261666666667 0.007678125 0.182546
62 1 -0.034846875 -0.00261666666667 0.008859375 0.271429
63 1 -0.034846875 -0.00261666666667 0.010040625 0.099715
64 1 -0.034846875 -0.00261666666667 0.011221875 0.0001
65 1 -0.034846875 -0.00125 -0.011221875 0.128571
66 1 -0.034846875 -0.00125 -0.010040625 0.037037
67 1 -0.034846875 -0.00125 -0.008859375 0.37619
68 1 -0.034846875 -0.00125 -0.007678125 0.320261
69 1 -0.034846875 -0.00125 -0.006496875 0.025641
70 1 -0.034846875 -0.00125 -0.005315625 0.0441596
71 1 -0.034846875 -0.00125 -0.004134375 0.088319
72 1 -0.034846875 -0.00125 -0.002953125 0.0441596
73 1 -0.034846875 -0.00125 -0.001771875 0.190883
74 1 -0.034846875 -0.00125 -0.000590625 0.474359
75 1 -0.034846875 -0.00125 0.000590625 0.3198
76 1 -0.034846875 -0.00125 0.001771875 0.025641
77 1 -0.034846875 -0.00125 0.002953125 0.0001
78 1 -0.034846875 -0.00125 0.004134375 0.025641
79 1 -0.034846875 -0.00125 0.005315625 0.0441596
80 1 -0.034846875 -0.00125 0.006496875 0.025641
81 1 -0.034846875 -0.00125 0.007678125 0.182546
82 1 -0.034846875 -0.00125 0.008859375 0.271429
83 1 -0.034846875 -0.00125 0.010040625 0.099715
84 1 -0.034846875 -0.00125 0.011221875 0.0001
85 1 -0.034846875 0.000116666666667 -0.011221875 0.128571
86 1 -0.034846875 0.000116666666667 -0.010040625 0.037037
87 1 -0.034846875 0.000116666666667 -0.008859375 0.37619
88 1 -0.034846875 0.000116666666667 -0.007678125 0.320261
89 1 -0.034846875 0.000116666666667 -0.006496875 0.025641
90 1 -0.034846875 0.000116666666667 -0.005315625 0.0441596
91 1 -0.034846875 0.000116666666667 -0.004134375 0.088319
92 1 -0.034846875 0.000116666666667 -0.002953125 0.0441596
93 1 -0.034846875 0.000116666666667 -0.001771875 0.190883
94 1 -0.034846875 0.000116666666667 -0.000590625 0.474359
95 1 -0.034846875 0.000116666666667 0.000590625 0.3198
96 1 -0.034846875 0.000116666666667 0.001771875 0.025641
97 1 -0.034846875 0.000116666666667 0.002953125 0.0001
98 1 -0.034846875 0.000116666666667 0.004134375 0.025641
99 1 -0.034846875 0.000116666666667 0.005315625 0.0441596
100 1 -0.034846875 0.000116666666667 0.006496875 0.025641
101 1 -0.034846875 0.000116666666667 0.007678125 0.182546
102 1 -0.034846875 0.000116666666667 0.008859375 0.271429
103 1 -0.034846875 0.000116666666667 0.010040625 0.099715
104 1 -0.034846875 0.000116666666667 0.011221875 0.0001
105 1 -0.033665625 -0.00261666666667 -0.013584375 0.0947712
106 1 -0.033665625 -0.00261666666667 -0.012403125 0.158425
107 1 -0.033665625 -0.00261666666667 -0.011221875 0.120936
108 1 -0.033665625 -0.00261666666667 -0.010040625 0.00925927
109 1 -0.033665625 -0.00261666666667 -0.008859375 0.161681
110 1 -0.033665625 -0.00261666666667 -0.007678125 0.437322
111 1 -0.033665625 -0.00261666666667 -0.006496875 0.112892
112 1 -0.033665625 -0.00261666666667 -0.005315625 0.0349003
113 1 -0.033665625 -0.00261666666667 -0.004134375 0.104701
114 1 -0.033665625 -0.00261666666667 -0.002953125 0.216524
115 1 -0.033665625 -0.00261666666667 -0.001771875 0.295584
116 1 -0.033665625 -0.00261666666667 -0.000590625 0.562678
117 1 -0.033665625 -0.00261666666667 0.000590625 0.215812
118 1 -0.033665625 -0.00261666666667 0.001771875 0.0918803
119 1 -0.033665625 -0.00261666666667 0.002953125 0.180199
120 1 -0.033665625 -0.00261666666667 0.004134375 0.19302
121 1 -0.033665625 -0.00261666666667 0.005315625 0.183761
122 1 -0.033665625 -0.00261666666667 0.006496875 0.333944
123 1 -0.033665625 -0.00261666666667 0.007678125 0.353147
124 1 -0.033665625 -0.00261666666667 0.008859375 0.14886
125 1 -0.033665625 -0.00261666666667 0.010040625 0.0477208
126 1 -0.033665625 -0.00261666666667 0.011221875 0.0138889
127 1 -0.033665625 -0.00261666666667 0.012403125 0.0001
128 1 -0.033665625 -0.00261666666667 0.013584375 0.00641026
129 1 -0.033665625 -0.00125 -0.013584375 0.0947712
130 1 -0.033665625 -0.00125 -0.012403125 0.158425
131 1 -0.033665625 -0.00125 -0.011221875 0.120936
132 1 -0.033665625 -0.00125 -0.010040625 0.00925927
133 1 -0.033665625 -0.00125 -0.008859375 0.161681
134 1 -0.033665625 -0.00125 -0.007678125 0.437322
135 1 -0.033665625 -0.00125 -0.006496875 0.112892
136 1 -0.033665625 -0.00125 -0.005315625 0.0349003
137 1 -0.033665625 -0.00125 -0.004134375 0.104701
138 1 -0.033665625 -0.00125 -0.002953125 0.216524
139 1 -0.033665625 -0.00125 -0.001771875 0.295584
140 1 -0.033665625 -0.00125 -0.000590625 0.562678
141 1 -0.033665625 -0.00125 0.000590625 0.215812
142 1 -0.033665625 -0.00125 0.001771875 0.0918803
143 1 -0.033665625 -0.00125 0.002953125 0.180199
144 1 -0.033665625 -0.00125 0.004134375 0.19302
145 1 -0.033665625 -0.00125 0.005315625 0.183761
146 1 -0.033665625 -0.00125 0.006496875 0.333944
147 1 -0.033665625 -0.00125 0.007678125 0.353147
148 1 -0.033665625 -0.00125 0.008859375 0.14886
149 1 -0.033665625 -0.00125 0.010040625 0.0477208
150 1 -0.033665625 -0.00125 0.011221875 0.0138889
151 1 -0.033665625 -0.00125 0.012403125 0.0001
152 1 -0.033665625 -0.00125 0.013584375 0.00641026
153 1 -0.033665625 0.000116666666667 -0.013584375 0.0947712
154 1 -0.033665625 0.000116666666667 -0.012403125 0.158425
155 1 -0.033665625 0.000116666666667 -0.011221875 0.120936
156 1 -0.033665625 0.000116666666667 -0.010040625 0.00925927
157 1 -0.033665625 0.000116666666667 -0.008859375 0.161681
158 1 -0.033665625 0.000116666666667 -0.007678125 0.437322
159 1 -0.033665625 0.000116666666667 -0.006496875 0.112892
160 1 -0.033665625 0.000116666666667 -0.005315625 0.0349003
161 1 -0.033665625 0.000116666666667 -0.004134375 0.104701
162 1 -0.033665625 0.000116666666667 -0.002953125 0.216524
163 1 -0.033665625 0.000116666666667 -0.001771875 0.295584
164 1 -0.033665625 0.000116666666667 -0.000590625 0.562678
165 1 -0.033665625 0.000116666666667 0.000590625 0.215812
166 1 -0.033665625 0.000116666666667 0.001771875 0.0918803
167 1 -0.033665625 0.000116666666667 0.002953125 0.180199
168 1 -0.033665625 0.000116666666667 0.004134375 0.19302
169 1 -0.033665625 0.000116666666667 0.005315625 0.183761
170 1 -0.033665625 0.000116666666667 0.006496875 0.333944
171 1 -0.033665625 0.000116666666667 0.007678125 0.353147
172 1 -0.033665625 0.000116666666667 0.008859375 0.14886
173 1 -0.033665625 0.000116666666667 0.010040625 0.0477208
174 1 -0.033665625 0.000116666666667 0.011221875 0.0138889
175 1 -0.033665625 0.000116666666667 0.012403125 0.0001
176 1 -0.033665625 0.000116666666667 0.013584375 0.00641026
177 1 -0.032484375 -0.00261666666667 -0.018309375 0.257143
178 1 -0.032484375 -0.00261666666667 -0.017128125 0.304762
179 1 -0.032484375 -0.00261666666667 -0.015946875 0.367647
180 1 -0.032484375 -0.00261666666667 -0.014765625 0.15812
181 1 -0.032484375 -0.00261666666667 -0.013584375 0.139601
182 1 -0.032484375 -0.00261666666667 -0.012403125 0.14886
183 1 -0.032484375 -0.00261666666667 -0.011221875 0.0698005
184 1 -0.032484375 -0.00261666666667 -0.010040625 0.025641
185 1 -0.032484375 -0.00261666666667 -0.008859375 0.0698006
186 1 -0.032484375 -0.00261666666667 -0.007678125 0.393162
187 1 -0.032484375 -0.00261666666667 -0.006496875 0.183761
188 1 -0.032484375 -0.00261666666667 -0.005315625 0.0883191
189 1 -0.032484375 -0.00261666666667 -0.004134375 0.334758
190 1 -0.032484375 -0.00261666666667 -0.002953125 0.400285
191 1 -0.032484375 -0.00261666666667 -0.001771875 0.404558
192 1 -0.032484375 -0.00261666666667 -0.000590625 0.588319
193 1 -0.032484375 -0.00261666666667 0.000590625 0.310541
194 1 -0.032484375 -0.00261666666667 0.001771875 0.297721
195 1 -0.032484375 -0.00261666666667 0.002953125 0.246439
196 1 -0.032484375 -0.00261666666667 0.004134375 0.11396
197 1 -0.032484375 -0.00261666666667 0.005315625 0.246439
198 1 -0.032484375 -0.00261666666667 0.006496875 0.644444
199 1 -0.032484375 -0.00261666666667 0.007678125 0.457265
200 1 -0.032484375 -0.00261666666667 0.008859375 0.209402
201 1 -0.032484375 -0.00261666666667 0.010040625 0.183761
202 1 -0.032484375 -0.00261666666667 0.011221875 0.088319
203 1 -0.032484375 -0.00261666666667 0.012403125 0.0698006
204 1 -0.032484375 -0.00261666666667 0.013584375 0.0826211
205 1 -0.032484375 -0.00261666666667 0.014765625 0.253561
206 1 -0.032484375 -0.00261666666667 0.015946875 0.387255
207 1 -0.032484375 -0.00261666666667 0.017128125 0.280952
208 1 -0.032484375 -0.00261666666667 0.018309375 0.190476
209 1 -0.032484375 -0.00125 -0.018309375 0.257143
210 1 -0.032484375 -0.00125 -0.017128125 0.304762
211 1 -0.032484375 -0.00125 -0.015946875 0.367647
212 1 -0.032484375 -0.00125 -0.014765625 0.15812
213 1 -0.032484375 -0.00125 -0.013584375 0.139601
214 1 -0.032484375 -0.00125 -0.012403125 0.14886
215 1 -0.032484375 -0.00125 -0.011221875 0.0698005
216 1 -0.032484375 -0.00125 -0.010040625 0.025641
217 1 -0.032484375 -0.00125 -0.008859375 0.0698006
218 1 -0.032484375 -0.00125 -0.007678125 0.393162
219 1 -0.032484375 -0.00125 -0.006496875 0.183761
220 1 -0.032484375 -0.00125 -0.005315625 0.0883191
221 1 -0.032484375 -0.00125 -0.004134375 0.334758
222 1 -0.032484375 -0.00125 -0.002953125 0.400285
223 1 -0.032484375 -0.00125 -0.001771875 0.404558
224 1 -0.032484375 -0.00125 -0.000590625 0.588319
225 1 -0.032484375 -0.00125 0.000590625 0.310541
226 1 -0.032484375 -0.00125 0.001771875 0.297721
227 1 -0.032484375 -0.00125 0.002953125 0.246439
228 1 -0.032484375 -0.00125 0.004134375 0.11396
229 1 -0.032484375 -0.00125 0.005315625 0.246439
230 1 -0.032484375 -0.00125 0.006496875 0.644444
231 1 -0.032484375 -0.00125 0.007678125 0.457265
232 1 -0.032484375 -0.00125 0.008859375 0.209402
233 1 -0.032484375 -0.00125 0.010040625 0.183761
234 1 -0.032484375 -0.00125 0.011221875 0.088319
235 1 -0.032484375 -0.00125 0.012403125 0.0698006
236 1 -0.032484375 -0.00125 0.013584375 0.0826211
237 1 -0.032484375 -0.00125 0.014765625 0.253561
238 1 -0.032484375 -0.00125 0.015946875 0.387255
239 1 -0.032484375 -0.00125 0.017128125 0.280952
240 1 -0.032484375 -0.00125 0.018309375 0.190476
241 1 -0.032484375 0.000116666666667 -0.018309375 0.257143
242 1 -0.032484375 0.000116666666667 -0.017128125 0.304762
243 1 -0.032484375 0.000116666666667 -0.015946875 0.367647
244 1 -0.032484375 0.000116666666667 -0.014765625 0.15812
245 1 -0.032484375 0.000116666666667 -0.013584375 0.139601
246 1 -0.032484375 0.000116666666667 -0.012403125 0.14886
247 1 -0.032484375 0.000116666666667 -0.011221875 0.0698005
248 1 -0.032484375 0.000116666666667 -0.010040625 0.025641
249 1 -0.032484375 0.000116666666667 -0.008859375 0.0698006
250 1 -0.032484375 0.000116666666667 -0.007678125 0.393162
251 1 -0.032484375 0.000116666666667 -0.006496875 0.183761
252 1 -0.032484375 0.000116666666667 -0.005315625 0.0883191
253 1 -0.032484375 0.000116666666667 -0.004134375 0.334758
254 1 -0.032484375 0.000116666666667 -0.002953125 0.400285
255 1 -0.032484375 0.000116666666667 -0.001771875 0.404558
256 1 -0.032484375 0.000116666666667 -0.000590625 0.588319
257 1 -0.032484375 0.000116666666667 0.000590625 0.310541
258 1 -0.032484375 0.000116666666667 0.001771875 0.297721
259 1 -0.032484375 0.000116666666667 0.002953125 0.246439
260 1 -0.032484375 0.000116666666667 0.004134375 0.11396
261 1 -0.032484375 0.000116666666667 0.005315625 0.246439
262 1 -0.032484375 0.000116666666667 0.006496875 0.644444
263 1 -0.032484375 0.000116666666667 0.007678125 0.457265
264 1 -0.032484375 0.000116666666667 0.008859375 0.209402
265 1 -0.032484375 0.000116666666667 0.010040625 0.183761
266 1 -0.032484375 0.000116666666667 0.011221875 0.088319
267 1 -0.032484375 0.000116666666667 0.012403125 0.0698006
268 1 -0.032484375 0.000116666666667 0.013584375 0.0826211
269 1 -0.032484375 0.000116666666667 0.014765625 0.253561
270 1 -0.032484375 0.000116666666667 0.015946875 0.387255
271 1 -0.032484375 0.000116666666667 0.017128125 0.280952
272 1 -0.032484375 0.000116666666667 0.018309375 0.190476
273 1 -0.031303125 -0.00261666666667 -0.019490625 0.0952381
274 1 -0.031303125 -0.00261666666667 -0.018309375 0.0751635
275 1 -0.031303125 -0.00261666666667 -0.017128125 0.209402
276 1 -0.031303125 -0.00261666666667 -0.015946875 0.521368
277 1 -0.031303125 -0.00261666666667 -0.014765625 0.45584
278 1 -0.031303125 -0.00261666666667 -0.013584375 0.371795
279 1 -0.031303125 -0.00261666666667 -0.012403125 0.374644
280 1 -0.031303125 -0.00261666666667 -0.011221875 0.279202
281 1 -0.031303125 -0.00261666666667 -0.010040625 0.253561
282 1 -0.031303125 -0.00261666666667 -0.008859375 0.209402
283 1 -0.031303125 -0.00261666666667 -0.007678125 0.367521
284 1 -0.031303125 -0.00261666666667 -0.006496875 0.275641
285 1 -0.031303125 -0.00261666666667 -0.005315625 0.38604
286 1 -0.031303125 -0.00261666666667 -0.004134375 0.735043
287 1 -0.031303125 -0.00261666666667 -0.002953125 0.54416
288 1 -0.031303125 -0.00261666666667 -0.001771875 0.569801
289 1 -0.031303125 -0.00261666666667 -0.000590625 0.525641
290 1 -0.031303125 -0.00261666666667 0.000590625 0.424501
291 1 -0.031303125 -0.00261666666667 0.001771875 0.474359
292 1 -0.031303125 -0.00261666666667 0.002953125 0.507122
293 1 -0.031303125 -0.00261666666667 0.004134375 0.323362
294 1 -0.031303125 -0.00261666666667 0.005315625 0.423077
295 1 -0.031303125 -0.00261666666667 0.006496875 0.471154
296 1 -0.031303125 -0.00261666666667 0.007678125 0.432478
297 1 -0.031303125 -0.00261666666667 0.008859375 0.374644
298 1 -0.031303125 -0.00261666666667 0.010040625 0.34188
299 1 -0.031303125 -0.00261666666667 0.011221875 0.22792
300 1 -0.031303125 -0.00261666666667 0.012403125 0.183761
301 1 -0.031303125 -0.00261666666667 0.013584375 0.253561
302 1 -0.031303125 -0.00261666666667 0.014765625 0.532763
303 1 -0.031303125 -0.00261666666667 0.015946875 0.323362
304 1 -0.031303125 -0.00261666666667 0.017128125 0.22792
305 1 -0.031303125 -0.00261666666667 0.018309375 0.272876
306 1 -0.031303125 -0.00261666666667 0.019490625 0.1
307 1 -0.031303125 -0.00125 -0.019490625 0.0952381
308 1 -0.031303125 -0.00125 -0.018309375 0.0751635
309 1 -0.031303125 -0.00125 -0.017128125 0.209402
310 1 -0.031303125 -0.00125 -0.015946875 0.521368
311 1 -0.031303125 -0.00125 -0.014765625 0.45584
312 1 -0.031303125 -0.00125 -0.013584375 0.371795
313 1 -0.031303125 -0.00125 -0.012403125 0.374644
314 1 -0.031303125 -0.00125 -0.011221875 0.279202
315 1 -0.031303125 -0.00125 -0.010040625 0.253561
316 1 -0.031303125 -0.00125 -0.008859375 0.209402
317 1 -0.031303125 -0.00125 -0.007678125 0.367521
318 1 -0.031303125 -0.00125 -0.006496875 0.275641
319 1 -0.031303125 -0.00125 -0.005315625 0.38604
320 1 -0.031303125 -0.00125 -0.004134375 0.735043
321 1 -0.031303125 -0.00125 -0.002953125 0.54416
322 1 -0.031303125 -0.00125 -0.001771875 0.569801
323 1 -0.031303125 -0.00125 -0.000590625 0.525641
324 1 -0.031303125 -0.00125 0.000590625 0.424501
325 1 -0.031303125 -0.00125 0.001771875 0.474359
326 1 -0.031303125 -0.00125 0.002953125 0.507122
327 1 -0.031303125 -0.00125 0.004134375 0.323362
328 1 -0.031303125 -0.00125 0.005315625 0.423077
329 1 -0.031303125 -0.00125 0.006496875 0.471154
330 1 -0.031303125 -0.00125 0.007678125 0.432478
331 1 -0.031303125 -0.00125 0.008859375 0.374644
332 1 -0.031303125 -0.00125 0.010040625 0.34188
333 1 -0.031303125 -0.00125 0.011221875 0.22792
334 1 -0.031303125 -0.00125 0.012403125 0.183761
335 1 -0.031303125 -0.00125 0.013584375 0.253561
336 1 -0.031303125 -0.00125 0.014765625 0.532763
337 1 -0.031303125 -0.00125 0.015946875 0.323362
338 1 -0.031303125 -0.00125 0.017128125 0.22792
339 1 -0.031303125 -0.00125 0.018309375 0.272876
340 1 -0.031303125 -0.00125 0.019490625 0.1
341 1 -0.031303125 0.000116666666667 -0.019490625 0.0952381
342 1 -0.031303125 0.000116666666667 -0.018309375 0.0751635
343 1 -0.031303125 0.000116666666667 -0.017128125 0.209402
344 1 -0.031303125 0.000116666666667 -0.015946875 0.521368
345 1 -0.031303125 0.000116666666667 -0.014765625 0.45584
346 1 -0.031303125 0.000116666666667 -0.013584375 0.371795
347 1 -0.031303125 0.000116666666667 -0.012403125 0.374644
348 1 -0.031303125 0.000116666666667 -0.011221875 0.279202
349 1 -0.031303125 0.000116666666667 -0.010040625 0.253561
350 1 -0.031303125 0.000116666666667 -0.008859375 0.209402
351 1 -0.031303125 0.000116666666667 -0.007678125 0.367521
352 1 -0.031303125 0.000116666666667 -0.006496875 0.275641
353 1 -0.031303125 0.000116666666667 -0.005315625 0.38604
354 1 -0.031303125 0.000116666666667 -0.004134375 0.735043
355 1 -0.031303125 0.000116666666667 -0.002953125 0.54416
356 1 -0.031303125 0.000116666666667 -0.001771875 0.569801
357 1 -0.031303125 0.000116666666667 -0.000590625 0.525641
358 1 -0.031303125 0.000116666666667 0.000590625 0.424501
359 1 -0.031303125 0.000116666666667 0.001771875 0.474359
360 1 -0.031303125 0.000116666666667 0.002953125 0.507122
361 1 -0.031303125 0.000116666666667 0.004134375 0.323362
362 1 -0.031303125 0.000116666666667 0.005315625 0.423077
363 1 -0.031303125 0.000116666666667 0.006496875 0.471154
364 1 -0.031303125 0.000116666666667 0.007678125 0.432478
365 1 -0.031303125 0.000116666666667 0.008859375 0.374644
366 1 -0.031303125 0.000116666666667 0.010040625 0.34188
367 1 -0.031303125 0.000116666666667 0.011221875 0.22792
368 1 -0.031303125 0.000116666666667 0.012403125 0.183761
369 1 -0.031303125 0.000116666666667 0.013584375 0.253561
370 1 -0.031303125 0.000116666666667 0.014765625 0.532763
371 1 -0.031303125 0.000116666666667 0.015946875 0.323362
372 1 -0.031303125 0.000116666666667 0.017128125 0.22792
373 1 -0.031303125 0.000116666666667 0.018309375 0.272876
374 1 -0.031303125 0.000116666666667 0.019490625 0.1
375 1 -0.030121875 -0.00261666666667 -0.020671875 0.113636
376 1 -0.030121875 -0.00261666666667 -0.019490625 0.0395299
377 1 -0.030121875 -0.00261666666667 -0.018309375 0.076923
378 1 -0.030121875 -0.00261666666667 -0.017128125 0.190883
379 1 -0.030121875 -0.00261666666667 -0.015946875 0.477208
380 1 -0.030121875 -0.00261666666667 -0.014765625 0.720798
381 1 -0.030121875 -0.00261666666667 -0.013584375 0.779202
382 1 -0.030121875 -0.00261666666667 -0.012403125 0.617522
383 1 -0.030121875 -0.00261666666667 -0.011221875 0.581197
384 1 -0.030121875 -0.00261666666667 -0.010040625 0.669516
385 1 -0.030121875 -0.00261666666667 -0.008859375 0.742165
386 1 -0.030121875 -0.00261666666667 -0.007678125 0.797721
387 1 -0.030121875 -0.00261666666667 -0.006496875 0.589744
388 1 -0.030121875 -0.00261666666667 -0.005315625 0.639601
389 1 -0.030121875 -0.00261666666667 -0.004134375 0.804843
390 1 -0.030121875 -0.00261666666667 -0.002953125 0.676638
391 1 -0.030121875 -0.00261666666667 -0.001771875 0.632479
392 1 -0.030121875 -0.00261666666667 -0.000590625 0.599715
393 1 -0.030121875 -0.00261666666667 0.000590625 0.532763
394 1 -0.030121875 -0.00261666666667 0.001771875 0.646724
395 1 -0.030121875 -0.00261666666667 0.002953125 0.65812
396 1 -0.030121875 -0.00261666666667 0.004134375 0.444444
397 1 -0.030121875 -0.00261666666667 0.005315625 0.360399
398 1 -0.030121875 -0.00261666666667 0.006496875 0.578633
399 1 -0.030121875 -0.00261666666667 0.007678125 0.605769
400 1 -0.030121875 -0.00261666666667 0.008859375 0.34188
401 1 -0.030121875 -0.00261666666667 0.010040625 0.393162
402 1 -0.030121875 -0.00261666666667 0.011221875 0.22792
403 1 -0.030121875 -0.00261666666667 0.012403125 0.209402
404 1 -0.030121875 -0.00261666666667 0.013584375 0.345441
405 1 -0.030121875 -0.00261666666667 0.014765625 0.61396
406 1 -0.030121875 -0.00261666666667 0.015946875 0.297721
407 1 -0.030121875 -0.00261666666667 0.017128125 0.309117
408 1 -0.030121875 -0.00261666666667 0.018309375 0.430199
409 1 -0.030121875 -0.00261666666667 0.019490625 0.0441596
410 1 -0.030121875 -0.00261666666667 0.020671875 0.0151515
411 1 -0.030121875 -0.00125 -0.020671875 0.113636
412 1 -0.030121875 -0.00125 -0.019490625 0.0395299
413 1 -0.030121875 -0.00125 -0.018309375 0.076923
414 1 -0.030121875 -0.00125 -0.017128125 0.190883
415 1 -0.030121875 -0.00125 -0.015946875 0.477208
416 1 -0.030121875 -0.00125 -0.014765625 0.720798
417 1 -0.030121875 -0.00125 -0.013584375 0.779202
418 1 -0.030121875 -0.00125 -0.012403125 0.617522
419 1 -0.030121875 -0.00125 -0.011221875 0.581197
420 1 -0.030121875 -0.00125 -0.010040625 0.669516
421 1 -0.030121875 -0.00125 -0.008859375 0.742165
422 1 -0.030121875 -0.00125 -0.007678125 0.797721
423 1 -0.030121875 -0.00125 -0.006496875 0.589744
424 1 -0.030121875 -0.00125 -0.005315625 0.639601
425 1 -0.030121875 -0.00125 -0.004134375 0.804843
426 1 -0.030121875 -0.00125 -0.002953125 0.676638
427 1 -0.030121875 -0.00125 -0.001771875 0.632479
428 1 -0.030121875 -0.00125 -0.000590625 0.599715
429 1 -0.030121875 -0.00125 0.000590625 0.532763
430 1 -0.030121875 -0.00125 0.001771875 0.646724
431 1 -0.030121875 -0.00125 0.002953125 0.65812
432 1 -0.030121875 -0.00125 0.004134375 0.444444
433 1 -0.030121875 -0.00125 0.005315625 0.360399
434 1 -0.030121875 -0.00125 0.006496875 0.578633
435 1 -0.030121875 -0.00125 0.007678125 0.605769
436 1 -0.030121875 -0.00125 0.008859375 0.34188
437 1 -0.030121875 -0.00125 0.010040625 0.393162
438 1 -0.030121875 -0.00125 0.011221875 0.22792
439 1 -0.030121875 -0.00125 0.012403125 0.209402
440 1 -0.030121875 -0.00125 0.013584375 0.345441
441 1 -0.030121875 -0.00125 0.014765625 0.61396
442 1 -0.030121875 -0.00125 0.015946875 0.297721
443 1 -0.030121875 -0.00125 0.017128125 0.309117
444 1 -0.030121875 -0.00125 0.018309375 0.430199
445 1 -0.030121875 -0.00125 0.019490625 0.0441596
446 1 -0.030121875 -0.00125 0.020671875 0.0151515
447 1 -0.030121875 0.000116666666667 -0.020671875 0.113636
448 1 -0.030121875 0.000116666666667 -0.019490625 0.0395299
449 1 -0.030121875 0.000116666666667 -0.018309375 0.076923
450 1 -0.030121875 0.000116666666667 -0.017128125 0.190883
451 1 -0.030121875 0.000116666666667 -0.015946875 0.477208
452 1 -0.030121875 0.000116666666667 -0.014765625 0.720798
453 1 -0.030121875 0.000116666666667 -0.013584375 0.779202
454 1 -0.030121875 0.000116666666667 -0.012403125 0.617522
455 1 -0.030121875 0.000116666666667 -0.011221875 0.581197
456 1 -0.030121875 0.000116666666667 -0.010040625 0.669516
457 1 -0.030121875 0.000116666666667 -0.008859375 0.742165
458 1 -0.030121875 0.000116666666667 -0.007678125 0.797721
459 1 -0.030121875 0.000116666666667 -0.006496875 0.589744
460 1 -0.030121875 0.000116666666667 -0.005315625 0.639601
461 1 -0.030121875 0.000116666666667 -0.004134375 0.804843
462 1 -0.030121875 0.000116666666667 -0.002953125 0.676638
463 1 -0.030121875 0.000116666666667 -0.001771875 0.632479
464 1 -0.030121875 0.000116666666667 -0.000590625 0.599715
465 1 -0.030121875 0.000116666666667 0.000590625 0.532763
466 1 -0.030121875 0.000116666666667 0.001771875 0.646724
467 1 -0.030121875 0.000116666666667 0.002953125 0.65812
468 1 -0.030121875 0.000116666666667 0.004134375 0.444444
469 1 -0.030121875 0.000116666666667 0.005315625 0.360399
470 1 -0.030121875 0.000116666666667 0.006496875 0.578633
471 1 -0.030121875 0.000116666666667 0.007678125 0.605769
472 1 -0.030121875 0.000116666666667 0.008859375 0.34188
473 1 -0.030121875 0.000116666666667 0.010040625 0.393162
474 1 -0.030121875 0.000116666666667 0.011221875 0.22792
475 1 -0.030121875 0.000116666666667 0.012403125 0.209402
476 1 -0.030121875 0.000116666666667 0.013584375 0.345441
477 1 -0.030121875 0.000116666666667 0.014765625 0.61396
478 1 -0.030121875 0.000116666666667 0.015946875 0.297721
479 1 -0.030121875 0.000116666666667 0.017128125 0.309117
480 1 -0.030121875 0.000116666666667 0.018309375 0.430199
481 1 -0.030121875 0.000116666666667 0.019490625 0.0441596
482 1 -0.030121875 0.000116666666667 0.020671875 0.0151515
483 1 -0.028940625 -0.00261666666667 -0.021853125 0.636364
484 1 -0.028940625 -0.00261666666667 -0.020671875 0.0751634
485 1 -0.028940625 -0.00261666666667 -0.019490625 0.0698005
486 1 -0.028940625 -0.00261666666667 -0.018309375 0.297721
487 1 -0.028940625 -0.00261666666667 -0.017128125 0.330484
488 1 -0.028940625 -0.00261666666667 -0.015946875 0.393162
489 1 -0.028940625 -0.00261666666667 -0.014765625 0.948718
490 1 -0.028940625 -0.00261666666667 -0.013584375 0.77208
491 1 -0.028940625 -0.00261666666667 -0.012403125 0.569801
492 1 -0.028940625 -0.00261666666667 -0.011221875 0.753561
493 1 -0.028940625 -0.00261666666667 -0.010040625 0.77208
494 1 -0.028940625 -0.00261666666667 -0.008859375 0.72792
495 1 -0.028940625 -0.00261666666667 -0.007678125 0.735043
496 1 -0.028940625 -0.00261666666667 -0.006496875 0.816239
497 1 -0.028940625 -0.00261666666667 -0.005315625 0.665242
498 1 -0.028940625 -0.00261666666667 -0.004134375 0.749288
499 1 -0.028940625 -0.00261666666667 -0.002953125 0.551282
500 1 -0.028940625 -0.00261666666667 -0.001771875 0.470086
501 1 -0.028940625 -0.00261666666667 -0.000590625 0.569801
502 1 -0.028940625 -0.00261666666667 0.000590625 0.674502
503 1 -0.028940625 -0.00261666666667 0.001771875 0.683761
504 1 -0.028940625 -0.00261666666667 0.002953125 0.437322
505 1 -0.028940625 -0.00261666666667 0.004134375 0.327635
506 1 -0.028940625 -0.00261666666667 0.005315625 0.507123
507 1 -0.028940625 -0.00261666666667 0.006496875 0.698718
508 1 -0.028940625 -0.00261666666667 0.007678125 0.51282
509 1 -0.028940625 -0.00261666666667 0.008859375 0.349003
510 1 -0.028940625 -0.00261666666667 0.010040625 0.165242
511 1 -0.028940625 -0.00261666666667 0.011221875 0.165242
512 1 -0.028940625 -0.00261666666667 0.012403125 0.139601
513 1 -0.028940625 -0.00261666666667 0.013584375 0.481481
514 1 -0.028940625 -0.00261666666667 0.014765625 0.5
515 1 -0.028940625 -0.00261666666667 0.015946875 0.518519
516 1 -0.028940625 -0.00261666666667 0.017128125 0.588319
517 1 -0.028940625 -0.00261666666667 0.018309375 0.430199
518 1 -0.028940625 -0.00261666666667 0.019490625 0.139601
519 1 -0.028940625 -0.00261666666667 0.020671875 0.0384615
520 1 -0.028940625 -0.00261666666667 0.021853125 0.0001
521 1 -0.028940625 -0.00125 -0.021853125 0.636364
522 1 -0.028940625 -0.00125 -0.020671875 0.0751634
523 1 -0.028940625 -0.00125 -0.019490625 0.0698005
524 1 -0.028940625 -0.00125 -0.018309375 0.297721
525 1 -0.028940625 -0.00125 -0.017128125 0.330484
526 1 -0.028940625 -0.00125 -0.015946875 0.393162
527 1 -0.028940625 -0.00125 -0.014765625 0.948718
528 1 -0.028940625 -0.00125 -0.013584375 0.77208
529 1 -0.028940625 -0.00125 -0.012403125 0.569801
530 1 -0.028940625 -0.00125 -0.011221875 0.753561
531 1 -0.028940625 -0.00125 -0.010040625 0.77208
532 1 -0.028940625 -0.00125 -0.008859375 0.72792
533 1 -0.028940625 -0.00125 -0.007678125 0.735043
534 1 -0.028940625 -0.00125 -0.006496875 0.816239
535 1 -0.028940625 -0.00125 -0.005315625 0.665242
536 1 -0.028940625 -0.00125 -0.004134375 0.749288
537 1 -0.028940625 -0.00125 -0.002953125 0.551282
538 1 -0.028940625 -0.00125 -0.001771875 0.470086