ITEM: TIMESTEP
0
ITEM: NUMBER OF ATOMS
9240
ITEM: BOX BOUNDS ss ss ss
-3.7007399999999996e-02 3.7007399999999996e-02
-2.0002499999999999e-03 2.5000000000000004e-07
-3.7007399999999996e-02 3.7007399999999996e-02
ITEM: ATOMS id type x y z c_1
0 1 -0.037209375 -0.00261666666667 -0.000590625 1.0
1 1 -0.037209375 -0.00125 -0.000590625 1.0
2 1 -0.037209375 0.000116666666667 -0.000590625 1.0
3 1 -0.036028125 -0.00261666666667 -0.007678125 0.17619
4 1 -0.036028125 -0.00261666666667 -0.006496875 0.155271
5 1 -0.036028125 -0.00261666666667 -0.005315625 0.0001
6 1 -0.036028125 -0.00261666666667 -0.004134375 0.0001
7 1 -0.036028125 -0.00261666666667 -0.002953125 0.162393
8 1 -0.036028125 -0.00261666666667 -0.001771875 0.276353
9 1 -0.036028125 -0.00261666666667 -0.000590625 0.361905
10 1 -0.036028125 -0.00261666666667 0.000590625 0.530601
11 1 -0.036028125 -0.00261666666667 0.001771875 0.062678
12 1 -0.036028125 -0.00261666666667 0.002953125 0.037037
13 1 -0.036028125 -0.00261666666667 0.004134375 0.0001
14 1 -0.036028125 -0.00261666666667 0.005315625 0.037037
15 1 -0.036028125 -0.00261666666667 0.006496875 0.099715
16 1 -0.036028125 -0.00261666666667 0.007678125 0.320614
17 1 -0.036028125 -0.00125 -0.007678125 0.17619
18 1 -0.036028125 -0.00125 -0.006496875 0.155271
19 1 -0.036028125 -0.00125 -0.005315625 0.0001
20 1 -0.036028125 -0.00125 -0.004134375 0.0001
21 1 -0.036028125 -0.00125 -0.002953125 0.162393
22 1 -0.036028125 -0.00125 -0.001771875 0.276353
23 1 -0.036028125 -0.00125 -0.000590625 0.361905
24 1 -0.036028125 -0.00125 0.000590625 0.530601
25 1 -0.036028125 -0.00125 0.001771875 0.062678
26 1 -0.036028125 -0.00125 0.002953125 0.037037
27 1 -0.036028125 -0.00125 0.004134375 0.0001
28 1 -0.036028125 -0.00125 0.005315625 0.037037
29 1 -0.036028125 -0.00125 0.006496875 0.099715
30 1 -0.036028125 -0.00125 0.007678125 0.320614
31 1 -0.036028125 0.000116666666667 -0.007678125 0.17619
32 1 -0.036028125 0.000116666666667 -0.006496875 0.155271
33 1 -0.036028125 0.000116666666667 -0.005315625 0.0001
34 1 -0.036028125 0.000116666666667 -0.004134375 0.0001
35 1 -0.036028125 0.000116666666667 -0.002953125 0.162393
36 1 -0.036028125 0.000116666666667 -0.001771875 0.276353
37 1 -0.036028125 0.000116666666667 -0.000590625 0.361905
38 1 -0.036028125 0.000116666666667 0.000590625 0.530601
39 1 -0.036028125 0.000116666666667 0.001771875 0.062678
40 1 -0.036028125 0.000116666666667 0.002953125 0.037037
41 1 -0.036028125 0.000116666666667 0.004134375 0.0001
42 1 -0.036028125 0.000116666666667 0.005315625 0.037037
43 1 -0.036028125 0.000116666666667 0.006496875 0.099715
44 1 -0.036028125 0.000116666666667 0.007678125 0.320614
45 1 -0.034846875 -0.00261666666667 -0.011221875 0.0642857
46 1 -0.034846875 -0.00261666666667 -0.010040625 0.031339
47 1 -0.034846875 -0.00261666666667 -0.008859375 0.12381
48 1 -0.034846875 -0.00261666666667 -0.007678125 0.272876
49 1 -0.034846875 -0.00261666666667 -0.006496875 0.161681
50 1 -0.034846875 -0.00261666666667 -0.005315625 0.0441596
51 1 -0.034846875 -0.00261666666667 -0.004134375 0.0001
52 1 -0.034846875 -0.00261666666667 -0.002953125 0.0698005
53 1 -0.034846875 -0.00261666666667 -0.001771875 0.235043
54 1 -0.034846875 -0.00261666666667 -0.000590625 0.346154
55 1 -0.034846875 -0.00261666666667 0.000590625 0.415242
56 1 -0.034846875 -0.00261666666667 0.001771875 0.076923
57 1 -0.034846875 -0.00261666666667 0.002953125 0.0698005
58 1 -0.034846875 -0.00261666666667 0.004134375 0.0954416
59 1 -0.034846875 -0.00261666666667 0.005315625 0.025641
60 1 -0.034846875 -0.00261666666667 0.006496875 0.242165
61 1 -0.034846875 -0.00261666666667 0.007678125 0.530229
62 1 -0.034846875 -0.00261666666667 0.008859375 0.214286
63 1 -0.034846875 -0.00261666666667 0.010040625 0.0001
64 1 -0.034846875 -0.00261666666667 0.011221875 0.0001
65 1 -0.034846875 -0.00125 -0.011221875 0.0642857
66 1 -0.034846875 -0.00125 -0.010040625 0.031339
67 1 -0.034846875 -0.00125 -0.008859375 0.12381
68 1 -0.034846875 -0.00125 -0.007678125 0.272876
69 1 -0.034846875 -0.00125 -0.006496875 0.161681
70 1 -0.034846875 -0.00125 -0.005315625 0.0441596
71 1 -0.034846875 -0.00125 -0.004134375 0.0001
72 1 -0.034846875 -0.00125 -0.002953125 0.0698005
73 1 -0.034846875 -0.00125 -0.001771875 0.235043
74 1 -0.034846875 -0.00125 -0.000590625 0.346154
75 1 -0.034846875 -0.00125 0.000590625 0.415242
76 1 -0.034846875 -0.00125 0.001771875 0.076923
77 1 -0.034846875 -0.00125 0.002953125 0.0698005
78 1 -0.034846875 -0.00125 0.004134375 0.0954416
79 1 -0.034846875 -0.00125 0.005315625 0.025641
80 1 -0.034846875 -0.00125 0.006496875 0.242165
81 1 -0.034846875 -0.00125 0.007678125 0.530229
82 1 -0.034846875 -0.00125 0.008859375 0.214286
83 1 -0.034846875 -0.00125 0.010040625 0.0001
84 1 -0.034846875 -0.00125 0.011221875 0.0001
85 1 -0.034846875 0.000116666666667 -0.011221875 0.0642857
86 1 -0.034846875 0.000116666666667 -0.010040625 0.031339
87 1 -0.034846875 0.000116666666667 -0.008859375 0.12381
88 1 -0.034846875 0.000116666666667 -0.007678125 0.272876
89 1 -0.034846875 0.000116666666667 -0.006496875 0.161681
90 1 -0.034846875 0.000116666666667 -0.005315625 0.0441596
91 1 -0.034846875 0.000116666666667 -0.004134375 0.0001
92 1 -0.034846875 0.000116666666667 -0.002953125 0.0698005
93 1 -0.034846875 0.000116666666667 -0.001771875 0.235043
94 1 -0.034846875 0.000116666666667 -0.000590625 0.346154
95 1 -0.034846875 0.000116666666667 0.000590625 0.415242
96 1 -0.034846875 0.000116666666667 0.001771875 0.076923
97 1 -0.034846875 0.000116666666667 0.002953125 0.0698005
98 1 -0.034846875 0.000116666666667 0.004134375 0.0954416
99 1 -0.034846875 0.000116666666667 0.005315625 0.025641
100 1 -0.034846875 0.000116666666667 0.006496875 0.242165
101 1 -0.034846875 0.000116666666667 0.007678125 0.530229
102 1 -0.034846875 0.000116666666667 0.008859375 0.214286
103 1 -0.034846875 0.000116666666667 0.010040625 0.0001
104 1 -0.034846875 0.000116666666667 0.011221875 0.0001
105 1 -0.033665625 -0.00261666666667 -0.013584375 0.122549
106 1 -0.033665625 -0.00261666666667 -0.012403125 0.301282
107 1 -0.033665625 -0.00261666666667 -0.011221875 0.0698006
108 1 -0.033665625 -0.00261666666667 -0.010040625 0.0954416
109 1 -0.033665625 -0.00261666666667 -0.008859375 0.0698006
110 1 -0.033665625 -0.00261666666667 -0.007678125 0.0954415
111 1 -0.033665625 -0.00261666666667 -0.006496875 0.0669515
112 1 -0.033665625 -0.00261666666667 -0.005315625 0.0128205
113 1 -0.033665625 -0.00261666666667 -0.004134375 0.0349003
114 1 -0.033665625 -0.00261666666667 -0.002953125 0.202279
115 1 -0.033665625 -0.00261666666667 -0.001771875 0.39886
116 1 -0.033665625 -0.00261666666667 -0.000590625 0.430199
117 1 -0.033665625 -0.00261666666667 0.000590625 0.231481
118 1 -0.033665625 -0.00261666666667 0.001771875 0.20584
119 1 -0.033665625 -0.00261666666667 0.002953125 0.22792
120 1 -0.033665625 -0.00261666666667 0.004134375 0.216524
121 1 -0.033665625 -0.00261666666667 0.005315625 0.20584
122 1 -0.033665625 -0.00261666666667 0.006496875 0.398504
123 1 -0.033665625 -0.00261666666667 0.007678125 0.329487
124 1 -0.033665625 -0.00261666666667 0.008859375 0.139601
125 1 -0.033665625 -0.00261666666667 0.010040625 0.111823
126 1 -0.033665625 -0.00261666666667 0.011221875 0.0395299
127 1 -0.033665625 -0.00261666666667 0.012403125 0.0128205
128 1 -0.033665625 -0.00261666666667 0.013584375 0.00833333
129 1 -0.033665625 -0.00125 -0.013584375 0.122549
130 1 -0.033665625 -0.00125 -0.012403125 0.301282
131 1 -0.033665625 -0.00125 -0.011221875 0.0698006
132 1 -0.033665625 -0.00125 -0.010040625 0.0954416
133 1 -0.033665625 -0.00125 -0.008859375 0.0698006
134 1 -0.033665625 -0.00125 -0.007678125 0.0954415
135 1 -0.033665625 -0.00125 -0.006496875 0.0669515
136 1 -0.033665625 -0.00125 -0.005315625 0.0128205
137 1 -0.033665625 -0.00125 -0.004134375 0.0349003
138 1 -0.033665625 -0.00125 -0.002953125 0.202279
139 1 -0.033665625 -0.00125 -0.001771875 0.39886
140 1 -0.033665625 -0.00125 -0.000590625 0.430199
141 1 -0.033665625 -0.00125 0.000590625 0.231481
142 1 -0.033665625 -0.00125 0.001771875 0.20584
143 1 -0.033665625 -0.00125 0.002953125 0.22792
144 1 -0.033665625 -0.00125 0.004134375 0.216524
145 1 -0.033665625 -0.00125 0.005315625 0.20584
146 1 -0.033665625 -0.00125 0.006496875 0.398504
147 1 -0.033665625 -0.00125 0.007678125 0.329487
148 1 -0.033665625 -0.00125 0.008859375 0.139601
149 1 -0.033665625 -0.00125 0.010040625 0.111823
150 1 -0.033665625 -0.00125 0.011221875 0.0395299
151 1 -0.033665625 -0.00125 0.012403125 0.0128205
152 1 -0.033665625 -0.00125 0.013584375 0.00833333
153 1 -0.033665625 0.000116666666667 -0.013584375 0.122549
154 1 -0.033665625 0.000116666666667 -0.012403125 0.301282
155 1 -0.033665625 0.000116666666667 -0.011221875 0.0698006
156 1 -0.033665625 0.000116666666667 -0.010040625 0.0954416
157 1 -0.033665625 0.000116666666667 -0.008859375 0.0698006
158 1 -0.033665625 0.000116666666667 -0.007678125 0.0954415
159 1 -0.033665625 0.000116666666667 -0.006496875 0.0669515
160 1 -0.033665625 0.000116666666667 -0.005315625 0.0128205
161 1 -0.033665625 0.000116666666667 -0.004134375 0.0349003
162 1 -0.033665625 0.000116666666667 -0.002953125 0.202279
163 1 -0.033665625 0.000116666666667 -0.001771875 0.39886
164 1 -0.033665625 0.000116666666667 -0.000590625 0.430199
165 1 -0.033665625 0.000116666666667 0.000590625 0.231481
166 1 -0.033665625 0.000116666666667 0.001771875 0.20584
167 1 -0.033665625 0.000116666666667 0.002953125 0.22792
168 1 -0.033665625 0.000116666666667 0.004134375 0.216524
169 1 -0.033665625 0.000116666666667 0.005315625 0.20584
170 1 -0.033665625 0.000116666666667 0.006496875 0.398504
171 1 -0.033665625 0.000116666666667 0.007678125 0.329487
172 1 -0.033665625 0.000116666666667 0.008859375 0.139601
173 1 -0.033665625 0.000116666666667 0.010040625 0.111823
174 1 -0.033665625 0.000116666666667 0.011221875 0.0395299
175 1 -0.033665625 0.000116666666667 0.012403125 0.0128205
176 1 -0.033665625 0.000116666666667 0.013584375 0.00833333
177 1 -0.032484375 -0.00261666666667 -0.018309375 0.709524
178 1 -0.032484375 -0.00261666666667 -0.017128125 0.419048
179 1 -0.032484375 -0.00261666666667 -0.015946875 0.312092
180 1 -0.032484375 -0.00261666666667 -0.014765625 0.223647
181 1 -0.032484375 -0.00261666666667 -0.013584375 0.11396
182 1 -0.032484375 -0.00261666666667 -0.012403125 0.466524
183 1 -0.032484375 -0.00261666666667 -0.011221875 0.451567
184 1 -0.032484375 -0.00261666666667 -0.010040625 0.552706
185 1 -0.032484375 -0.00261666666667 -0.008859375 0.297721
186 1 -0.032484375 -0.00261666666667 -0.007678125 0.202279
187 1 -0.032484375 -0.00261666666667 -0.006496875 0.0605413
188 1 -0.032484375 -0.00261666666667 -0.005315625 0.0698005
189 1 -0.032484375 -0.00261666666667 -0.004134375 0.34188
190 1 -0.032484375 -0.00261666666667 -0.002953125 0.595442
191 1 -0.032484375 -0.00261666666667 -0.001771875 0.588319
192 1 -0.032484375 -0.00261666666667 -0.000590625 0.650997
193 1 -0.032484375 -0.00261666666667 0.000590625 0.336182
194 1 -0.032484375 -0.00261666666667 0.001771875 0.367521
195 1 -0.032484375 -0.00261666666667 0.002953125 0.418803
196 1 -0.032484375 -0.00261666666667 0.004134375 0.304843
197 1 -0.032484375 -0.00261666666667 0.005315625 0.495726
198 1 -0.032484375 -0.00261666666667 0.006496875 0.606838
199 1 -0.032484375 -0.00261666666667 0.007678125 0.37678
200 1 -0.032484375 -0.00261666666667 0.008859375 0.374644
201 1 -0.032484375 -0.00261666666667 0.010040625 0.242165
202 1 -0.032484375 -0.00261666666667 0.011221875 0.0954416
203 1 -0.032484375 -0.00261666666667 0.012403125 0.0185185
204 1 -0.032484375 -0.00261666666667 0.013584375 0.0220798
205 1 -0.032484375 -0.00261666666667 0.014765625 0.27208
206 1 -0.032484375 -0.00261666666667 0.015946875 0.517974
207 1 -0.032484375 -0.00261666666667 0.017128125 0.252381
208 1 -0.032484375 -0.00261666666667 0.018309375 0.290476
209 1 -0.032484375 -0.00125 -0.018309375 0.709524
210 1 -0.032484375 -0.00125 -0.017128125 0.419048
211 1 -0.032484375 -0.00125 -0.015946875 0.312092
212 1 -0.032484375 -0.00125 -0.014765625 0.223647
213 1 -0.032484375 -0.00125 -0.013584375 0.11396
214 1 -0.032484375 -0.00125 -0.012403125 0.466524
215 1 -0.032484375 -0.00125 -0.011221875 0.451567
216 1 -0.032484375 -0.00125 -0.010040625 0.552706
217 1 -0.032484375 -0.00125 -0.008859375 0.297721
218 1 -0.032484375 -0.00125 -0.007678125 0.202279
219 1 -0.032484375 -0.00125 -0.006496875 0.0605413
220 1 -0.032484375 -0.00125 -0.005315625 0.0698005
221 1 -0.032484375 -0.00125 -0.004134375 0.34188
222 1 -0.032484375 -0.00125 -0.002953125 0.595442
223 1 -0.032484375 -0.00125 -0.001771875 0.588319
224 1 -0.032484375 -0.00125 -0.000590625 0.650997
225 1 -0.032484375 -0.00125 0.000590625 0.336182
226 1 -0.032484375 -0.00125 0.001771875 0.367521
227 1 -0.032484375 -0.00125 0.002953125 0.418803
228 1 -0.032484375 -0.00125 0.004134375 0.304843
229 1 -0.032484375 -0.00125 0.005315625 0.495726
230 1 -0.032484375 -0.00125 0.006496875 0.606838
231 1 -0.032484375 -0.00125 0.007678125 0.37678
232 1 -0.032484375 -0.00125 0.008859375 0.374644
233 1 -0.032484375 -0.00125 0.010040625 0.242165
234 1 -0.032484375 -0.00125 0.011221875 0.0954416
235 1 -0.032484375 -0.00125 0.012403125 0.0185185
236 1 -0.032484375 -0.00125 0.013584375 0.0220798
237 1 -0.032484375 -0.00125 0.014765625 0.27208
238 1 -0.032484375 -0.00125 0.015946875 0.517974
239 1 -0.032484375 -0.00125 0.017128125 0.252381
240 1 -0.032484375 -0.00125 0.018309375 0.290476
241 1 -0.032484375 0.000116666666667 -0.018309375 0.709524
242 1 -0.032484375 0.000116666666667 -0.017128125 0.419048
243 1 -0.032484375 0.000116666666667 -0.015946875 0.312092
244 1 -0.032484375 0.000116666666667 -0.014765625 0.223647
245 1 -0.032484375 0.000116666666667 -0.013584375 0.11396
246 1 -0.032484375 0.000116666666667 -0.012403125 0.466524
247 1 -0.032484375 0.000116666666667 -0.011221875 0.451567
248 1 -0.032484375 0.000116666666667 -0.010040625 0.552706
249 1 -0.032484375 0.000116666666667 -0.008859375 0.297721
250 1 -0.032484375 0.000116666666667 -0.007678125 0.202279
251 1 -0.032484375 0.000116666666667 -0.006496875 0.0605413
252 1 -0.032484375 0.000116666666667 -0.005315625 0.0698005
253 1 -0.032484375 0.000116666666667 -0.004134375 0.34188
254 1 -0.032484375 0.000116666666667 -0.002953125 0.595442
255 1 -0.032484375 0.000116666666667 -0.001771875 0.588319
256 1 -0.032484375 0.000116666666667 -0.000590625 0.650997
257 1 -0.032484375 0.000116666666667 0.000590625 0.336182
258 1 -0.032484375 0.000116666666667 0.001771875 0.367521
259 1 -0.032484375 0.000116666666667 0.002953125 0.418803
260 1 -0.032484375 0.000116666666667 0.004134375 0.304843
261 1 -0.032484375 0.000116666666667 0.005315625 0.495726
262 1 -0.032484375 0.000116666666667 0.006496875 0.606838
263 1 -0.032484375 0.000116666666667 0.007678125 0.37678
264 1 -0.032484375 0.000116666666667 0.008859375 0.374644
265 1 -0.032484375 0.000116666666667 0.010040625 0.242165
266 1 -0.032484375 0.000116666666667 0.011221875 0.0954416
267 1 -0.032484375 0.000116666666667 0.012403125 0.0185185
268 1 -0.032484375 0.000116666666667 0.013584375 0.0220798
269 1 -0.032484375 0.000116666666667 0.014765625 0.27208
270 1 -0.032484375 0.000116666666667 0.015946875 0.517974
271 1 -0.032484375 0.000116666666667 0.017128125 0.252381
272 1 -0.032484375 0.000116666666667 0.018309375 0.290476
273 1 -0.031303125 -0.00261666666667 -0.019490625 0.947619
274 1 -0.031303125 -0.00261666666667 -0.018309375 0.841503
275 1 -0.031303125 -0.00261666666667 -0.017128125 0.525641
276 1 -0.031303125 -0.00261666666667 -0.015946875 0.558405
277 1 -0.031303125 -0.00261666666667 -0.014765625 0.132479
278 1 -0.031303125 -0.00261666666667 -0.013584375 0.139601
279 1 -0.031303125 -0.00261666666667 -0.012403125 0.623219
280 1 -0.031303125 -0.00261666666667 -0.011221875 0.532763
281 1 -0.031303125 -0.00261666666667 -0.010040625 0.576923
282 1 -0.031303125 -0.00261666666667 -0.008859375 0.665242
283 1 -0.031303125 -0.00261666666667 -0.007678125 0.690883
284 1 -0.031303125 -0.00261666666667 -0.006496875 0.332621
285 1 -0.031303125 -0.00261666666667 -0.005315625 0.45584
286 1 -0.031303125 -0.00261666666667 -0.004134375 0.632479
287 1 -0.031303125 -0.00261666666667 -0.002953125 0.525641
288 1 -0.031303125 -0.00261666666667 -0.001771875 0.462963
289 1 -0.031303125 -0.00261666666667 -0.000590625 0.393162
290 1 -0.031303125 -0.00261666666667 0.000590625 0.485043
291 1 -0.031303125 -0.00261666666667 0.001771875 0.595442
292 1 -0.031303125 -0.00261666666667 0.002953125 0.646724
293 1 -0.031303125 -0.00261666666667 0.004134375 0.595442
294 1 -0.031303125 -0.00261666666667 0.005315625 0.716524
295 1 -0.031303125 -0.00261666666667 0.006496875 0.54416
296 1 -0.031303125 -0.00261666666667 0.007678125 0.301282
297 1 -0.031303125 -0.00261666666667 0.008859375 0.532764
298 1 -0.031303125 -0.00261666666667 0.010040625 0.61396
299 1 -0.031303125 -0.00261666666667 0.011221875 0.304843
300 1 -0.031303125 -0.00261666666667 0.012403125 0.242165
301 1 -0.031303125 -0.00261666666667 0.013584375 0.123219
302 1 -0.031303125 -0.00261666666667 0.014765625 0.430199
303 1 -0.031303125 -0.00261666666667 0.015946875 0.581197
304 1 -0.031303125 -0.00261666666667 0.017128125 0.27208
305 1 -0.031303125 -0.00261666666667 0.018309375 0.161765
306 1 -0.031303125 -0.00261666666667 0.019490625 0.0001
307 1 -0.031303125 -0.00125 -0.019490625 0.947619
308 1 -0.031303125 -0.00125 -0.018309375 0.841503
309 1 -0.031303125 -0.00125 -0.017128125 0.525641
310 1 -0.031303125 -0.00125 -0.015946875 0.558405
311 1 -0.031303125 -0.00125 -0.014765625 0.132479
312 1 -0.031303125 -0.00125 -0.013584375 0.139601
313 1 -0.031303125 -0.00125 -0.012403125 0.623219
314 1 -0.031303125 -0.00125 -0.011221875 0.532763
315 1 -0.031303125 -0.00125 -0.010040625 0.576923
316 1 -0.031303125 -0.00125 -0.008859375 0.665242
317 1 -0.031303125 -0.00125 -0.007678125 0.690883
318 1 -0.031303125 -0.00125 -0.006496875 0.332621
319 1 -0.031303125 -0.00125 -0.005315625 0.45584
320 1 -0.031303125 -0.00125 -0.004134375 0.632479
321 1 -0.031303125 -0.00125 -0.002953125 0.525641
322 1 -0.031303125 -0.00125 -0.001771875 0.462963
323 1 -0.031303125 -0.00125 -0.000590625 0.393162
324 1 -0.031303125 -0.00125 0.000590625 0.485043
325 1 -0.031303125 -0.00125 0.001771875 0.595442
326 1 -0.031303125 -0.00125 0.002953125 0.646724
327 1 -0.031303125 -0.00125 0.004134375 0.595442
328 1 -0.031303125 -0.00125 0.005315625 0.716524
329 1 -0.031303125 -0.00125 0.006496875 0.54416
330 1 -0.031303125 -0.00125 0.007678125 0.301282
331 1 -0.031303125 -0.00125 0.008859375 0.532764
332 1 -0.031303125 -0.00125 0.010040625 0.61396
333 1 -0.031303125 -0.00125 0.011221875 0.304843
334 1 -0.031303125 -0.00125 0.012403125 0.242165
335 1 -0.031303125 -0.00125 0.013584375 0.123219
336 1 -0.031303125 -0.00125 0.014765625 0.430199
337 1 -0.031303125 -0.00125 0.015946875 0.581197
338 1 -0.031303125 -0.00125 0.017128125 0.27208
339 1 -0.031303125 -0.00125 0.018309375 0.161765
340 1 -0.031303125 -0.00125 0.019490625 0.0001
341 1 -0.031303125 0.000116666666667 -0.019490625 0.947619
342 1 -0.031303125 0.000116666666667 -0.018309375 0.841503
343 1 -0.031303125 0.000116666666667 -0.017128125 0.525641
344 1 -0.031303125 0.000116666666667 -0.015946875 0.558405
345 1 -0.031303125 0.000116666666667 -0.014765625 0.132479
346 1 -0.031303125 0.000116666666667 -0.013584375 0.139601
347 1 -0.031303125 0.000116666666667 -0.012403125 0.623219
348 1 -0.031303125 0.000116666666667 -0.011221875 0.532763
349 1 -0.031303125 0.000116666666667 -0.010040625 0.576923
350 1 -0.031303125 0.000116666666667 -0.008859375 0.665242
351 1 -0.031303125 0.000116666666667 -0.007678125 0.690883
352 1 -0.031303125 0.000116666666667 -0.006496875 0.332621
353 1 -0.031303125 0.000116666666667 -0.005315625 0.45584
354 1 -0.031303125 0.000116666666667 -0.004134375 0.632479
355 1 -0.031303125 0.000116666666667 -0.002953125 0.525641
356 1 -0.031303125 0.000116666666667 -0.001771875 0.462963
357 1 -0.031303125 0.000116666666667 -0.000590625 0.393162
358 1 -0.031303125 0.000116666666667 0.000590625 0.485043
359 1 -0.031303125 0.000116666666667 0.001771875 0.595442
360 1 -0.031303125 0.000116666666667 0.002953125 0.646724
361 1 -0.031303125 0.000116666666667 0.004134375 0.595442
362 1 -0.031303125 0.000116666666667 0.005315625 0.716524
363 1 -0.031303125 0.000116666666667 0.006496875 0.54416
364 1 -0.031303125 0.000116666666667 0.007678125 0.301282
365 1 -0.031303125 0.000116666666667 0.008859375 0.532764
366 1 -0.031303125 0.000116666666667 0.010040625 0.61396
367 1 -0.031303125 0.000116666666667 0.011221875 0.304843
368 1 -0.031303125 0.000116666666667 0.012403125 0.242165
369 1 -0.031303125 0.000116666666667 0.013584375 0.123219
370 1 -0.031303125 0.000116666666667 0.014765625 0.430199
371 1 -0.031303125 0.000116666666667 0.015946875 0.581197
372 1 -0.031303125 0.000116666666667 0.017128125 0.27208
373 1 -0.031303125 0.000116666666667 0.018309375 0.161765
374 1 -0.031303125 0.000116666666667 0.019490625 0.0001
375 1 -0.030121875 -0.00261666666667 -0.020671875 0.443182
376 1 -0.030121875 -0.00261666666667 -0.019490625 0.925381
377 1 -0.030121875 -0.00261666666667 -0.018309375 0.918803
378 1 -0.030121875 -0.00261666666667 -0.017128125 0.588319
379 1 -0.030121875 -0.00261666666667 -0.015946875 0.481481
380 1 -0.030121875 -0.00261666666667 -0.014765625 0.525641
381 1 -0.030121875 -0.00261666666667 -0.013584375 0.54416
382 1 -0.030121875 -0.00261666666667 -0.012403125 0.472222
383 1 -0.030121875 -0.00261666666667 -0.011221875 0.38604
384 1 -0.030121875 -0.00261666666667 -0.010040625 0.367521
385 1 -0.030121875 -0.00261666666667 -0.008859375 0.430199
386 1 -0.030121875 -0.00261666666667 -0.007678125 0.609686
387 1 -0.030121875 -0.00261666666667 -0.006496875 0.586182
388 1 -0.030121875 -0.00261666666667 -0.005315625 0.735043
389 1 -0.030121875 -0.00261666666667 -0.004134375 0.539886
390 1 -0.030121875 -0.00261666666667 -0.002953125 0.672365
391 1 -0.030121875 -0.00261666666667 -0.001771875 0.470085
392 1 -0.030121875 -0.00261666666667 -0.000590625 0.393162
393 1 -0.030121875 -0.00261666666667 0.000590625 0.617522
394 1 -0.030121875 -0.00261666666667 0.001771875 0.713675
395 1 -0.030121875 -0.00261666666667 0.002953125 0.690883
396 1 -0.030121875 -0.00261666666667 0.004134375 0.632479
397 1 -0.030121875 -0.00261666666667 0.005315625 0.816239
398 1 -0.030121875 -0.00261666666667 0.006496875 0.589744
399 1 -0.030121875 -0.00261666666667 0.007678125 0.393162
400 1 -0.030121875 -0.00261666666667 0.008859375 0.562678
401 1 -0.030121875 -0.00261666666667 0.010040625 0.5
402 1 -0.030121875 -0.00261666666667 0.011221875 0.38604
403 1 -0.030121875 -0.00261666666667 0.012403125 0.353276
404 1 -0.030121875 -0.00261666666667 0.013584375 0.297721
405 1 -0.030121875 -0.00261666666667 0.014765625 0.698006
406 1 -0.030121875 -0.00261666666667 0.015946875 0.444444
407 1 -0.030121875 -0.00261666666667 0.017128125 0.235043
408 1 -0.030121875 -0.00261666666667 0.018309375 0.0512821
409 1 -0.030121875 -0.00261666666667 0.019490625 0.025641
410 1 -0.030121875 -0.00261666666667 0.020671875 0.0001
411 1 -0.030121875 -0.00125 -0.020671875 0.443182
412 1 -0.030121875 -0.00125 -0.019490625 0.925381
413 1 -0.030121875 -0.00125 -0.018309375 0.918803
414 1 -0.030121875 -0.00125 -0.017128125 0.588319
415 1 -0.030121875 -0.00125 -0.015946875 0.481481
416 1 -0.030121875 -0.00125 -0.014765625 0.525641
417 1 -0.030121875 -0.00125 -0.013584375 0.54416
418 1 -0.030121875 -0.00125 -0.012403125 0.472222
419 1 -0.030121875 -0.00125 -0.011221875 0.38604
420 1 -0.030121875 -0.00125 -0.010040625 0.367521
421 1 -0.030121875 -0.00125 -0.008859375 0.430199
422 1 -0.030121875 -0.00125 -0.007678125 0.609686
423 1 -0.030121875 -0.00125 -0.006496875 0.586182
424 1 -0.030121875 -0.00125 -0.005315625 0.735043
425 1 -0.030121875 -0.00125 -0.004134375 0.539886
426 1 -0.030121875 -0.00125 -0.002953125 0.672365
427 1 -0.030121875 -0.00125 -0.001771875 0.470085
428 1 -0.030121875 -0.00125 -0.000590625 0.393162
429 1 -0.030121875 -0.00125 0.000590625 0.617522
430 1 -0.030121875 -0.00125 0.001771875 0.713675
431 1 -0.030121875 -0.00125 0.002953125 0.690883
432 1 -0.030121875 -0.00125 0.004134375 0.632479
433 1 -0.030121875 -0.00125 0.005315625 0.816239
434 1 -0.030121875 -0.00125 0.006496875 0.589744
435 1 -0.030121875 -0.00125 0.007678125 0.393162
436 1 -0.030121875 -0.00125 0.008859375 0.562678
437 1 -0.030121875 -0.00125 0.010040625 0.5
438 1 -0.030121875 -0.00125 0.011221875 0.38604
439 1 -0.030121875 -0.00125 0.012403125 0.353276
440 1 -0.030121875 -0.00125 0.013584375 0.297721
441 1 -0.030121875 -0.00125 0.014765625 0.698006
442 1 -0.030121875 -0.00125 0.015946875 0.444444
443 1 -0.030121875 -0.00125 0.017128125 0.235043
444 1 -0.030121875 -0.00125 0.018309375 0.0512821
445 1 -0.030121875 -0.00125 0.019490625 0.025641
446 1 -0.030121875 -0.00125 0.020671875 0.0001
447 1 -0.030121875 0.000116666666667 -0.020671875 0.443182
448 1 -0.030121875 0.000116666666667 -0.019490625 0.925381
449 1 -0.030121875 0.000116666666667 -0.018309375 0.918803
450 1 -0.030121875 0.000116666666667 -0.017128125 0.588319
451 1 -0.030121875 0.000116666666667 -0.015946875 0.481481
452 1 -0.030121875 0.000116666666667 -0.014765625 0.525641
453 1 -0.030121875 0.000116666666667 -0.013584375 0.54416
454 1 -0.030121875 0.000116666666667 -0.012403125 0.472222
455 1 -0.030121875 0.000116666666667 -0.011221875 0.38604
456 1 -0.030121875 0.000116666666667 -0.010040625 0.367521
457 1 -0.030121875 0.000116666666667 -0.008859375 0.430199
458 1 -0.030121875 0.000116666666667 -0.007678125 0.609686
459 1 -0.030121875 0.000116666666667 -0.006496875 0.586182
460 1 -0.030121875 0.000116666666667 -0.005315625 0.735043
461 1 -0.030121875 0.000116666666667 -0.004134375 0.539886
462 1 -0.030121875 0.000116666666667 -0.002953125 0.672365
463 1 -0.030121875 0.000116666666667 -0.001771875 0.470085
464 1 -0.030121875 0.000116666666667 -0.000590625 0.393162
465 1 -0.030121875 0.000116666666667 0.000590625 0.617522
466 1 -0.030121875 0.000116666666667 0.001771875 0.713675
467 1 -0.030121875 0.000116666666667 0.002953125 0.690883
468 1 -0.030121875 0.000116666666667 0.004134375 0.632479
469 1 -0.030121875 0.000116666666667 0.005315625 0.816239
470 1 -0.030121875 0.000116666666667 0.006496875 0.589744
471 1 -0.030121875 0.000116666666667 0.007678125 0.393162
472 1 -0.030121875 0.000116666666667 0.008859375 0.562678
473 1 -0.030121875 0.000116666666667 0.010040625 0.5
474 1 -0.030121875 0.000116666666667 0.011221875 0.38604
475 1 -0.030121875 0.000116666666667 0.012403125 0.353276
476 1 -0.030121875 0.000116666666667 0.013584375 0.297721
477 1 -0.030121875 0.000116666666667 0.014765625 0.698006
478 1 -0.030121875 0.000116666666667 0.015946875 0.444444
479 1 -0.030121875 0.000116666666667 0.017128125 0.235043
480 1 -0.030121875 0.000116666666667 0.018309375 0.0512821
481 1 -0.030121875 0.000116666666667 0.019490625 0.025641
482 1 -0.030121875 0.000116666666667 0.020671875 0.0001
483 1 -0.028940625 -0.00261666666667 -0.021853125 0.568182
484 1 -0.028940625 -0.00261666666667 -0.020671875 0.423202
485 1 -0.028940625 -0.00261666666667 -0.019490625 0.76862
486 1 -0.028940625 -0.00261666666667 -0.018309375 0.923077
487 1 -0.028940625 -0.00261666666667 -0.017128125 0.74359
488 1 -0.028940625 -0.00261666666667 -0.015946875 0.525641
489 1 -0.028940625 -0.00261666666667 -0.014765625 0.621083
490 1 -0.028940625 -0.00261666666667 -0.013584375 0.72792
491 1 -0.028940625 -0.00261666666667 -0.012403125 0.437322
492 1 -0.028940625 -0.00261666666667 -0.011221875 0.462963
493 1 -0.028940625 -0.00261666666667 -0.010040625 0.423077
494 1 -0.028940625 -0.00261666666667 -0.008859375 0.334758
495 1 -0.028940625 -0.00261666666667 -0.007678125 0.558404
496 1 -0.028940625 -0.00261666666667 -0.006496875 0.652422
497 1 -0.028940625 -0.00261666666667 -0.005315625 0.588319
498 1 -0.028940625 -0.00261666666667 -0.004134375 0.411681
499 1 -0.028940625 -0.00261666666667 -0.002953125 0.462963
500 1 -0.028940625 -0.00261666666667 -0.001771875 0.393162
501 1 -0.028940625 -0.00261666666667 -0.000590625 0.61396
502 1 -0.028940625 -0.00261666666667 0.000590625 0.612536
503 1 -0.028940625 -0.00261666666667 0.001771875 0.532764
504 1 -0.028940625 -0.00261666666667 0.002953125 0.404558
505 1 -0.028940625 -0.00261666666667 0.004134375 0.507122
506 1 -0.028940625 -0.00261666666667 0.005315625 0.514245
507 1 -0.028940625 -0.00261666666667 0.006496875 0.69302
508 1 -0.028940625 -0.00261666666667 0.007678125 0.551282
509 1 -0.028940625 -0.00261666666667 0.008859375 0.532764
510 1 -0.028940625 -0.00261666666667 0.010040625 0.290598
511 1 -0.028940625 -0.00261666666667 0.011221875 0.353276
512 1 -0.028940625 -0.00261666666667 0.012403125 0.367521
513 1 -0.028940625 -0.00261666666667 0.013584375 0.396723
514 1 -0.028940625 -0.00261666666667 0.014765625 0.595442
515 1 -0.028940625 -0.00261666666667 0.015946875 0.349003
516 1 -0.028940625 -0.00261666666667 0.017128125 0.260684
517 1 -0.028940625 -0.00261666666667 0.018309375 0.165242
518 1 -0.028940625 -0.00261666666667 0.019490625 0.0441596
519 1 -0.028940625 -0.00261666666667 0.020671875 0.0001
520 1 -0.028940625 -0.00261666666667 0.021853125 0.0001
521 1 -0.028940625 -0.00125 -0.021853125 0.568182
522 1 -0.028940625 -0.00125 -0.020671875 0.423202
523 1 -0.028940625 -0.00125 -0.019490625 0.76862
524 1 -0.028940625 -0.00125 -0.018309375 0.923077
525 1 -0.028940625 -0.00125 -0.017128125 0.74359
526 1 -0.028940625 -0.00125 -0.015946875 0.525641
527 1 -0.028940625 -0.00125 -0.014765625 0.621083
528 1 -0.028940625 -0.00125 -0.013584375 0.72792
529 1 -0.028940625 -0.00125 -0.012403125 0.437322
530 1 -0.028940625 -0.00125 -0.011221875 0.462963
531 1 -0.028940625 -0.00125 -0.010040625 0.423077
532 1 -0.028940625 -0.00125 -0.008859375 0.334758
533 1 -0.028940625 -0.00125 -0.007678125 0.558404
534 1 -0.028940625 -0.00125 -0.006496875 0.652422
535 1 -0.028940625 -0.00125 -0.005315625 0.588319
536 1 -0.028940625 -0.00125 -0.004134375 0.411681
537 1 -0.028940625 -0.00125 -0.002953125 0.462963
538 1 -0.028940625 -0.00125 -0.001771875 0.393162