ITEM: TIMESTEP
0
ITEM: NUMBER OF ATOMS
9240
ITEM: BOX BOUNDS ss ss ss
-3.7007399999999996e-02 3.7007399999999996e-02
-2.0002499999999999e-03 2.5000000000000004e-07
-3.7007399999999996e-02 3.7007399999999996e-02
ITEM: ATOMS id type x y z c_1
0 1 -0.037209375 -0.00261666666667 -0.000590625 1.0
1 1 -0.037209375 -0.00125 -0.000590625 1.0
2 1 -0.037209375 0.000116666666667 -0.000590625 1.0
3 1 -0.036028125 -0.00261666666667 -0.007678125 0.128571
4 1 -0.036028125 -0.00261666666667 -0.006496875 0.0001
5 1 -0.036028125 -0.00261666666667 -0.005315625 0.136752
6 1 -0.036028125 -0.00261666666667 -0.004134375 0.324786
7 1 -0.036028125 -0.00261666666667 -0.002953125 0.487179
8 1 -0.036028125 -0.00261666666667 -0.001771875 0.324786
9 1 -0.036028125 -0.00261666666667 -0.000590625 0.504762
10 1 -0.036028125 -0.00261666666667 0.000590625 0.262257
11 1 -0.036028125 -0.00261666666667 0.001771875 0.037037
12 1 -0.036028125 -0.00261666666667 0.002953125 0.074074
13 1 -0.036028125 -0.00261666666667 0.004134375 0.099715
14 1 -0.036028125 -0.00261666666667 0.005315625 0.099715
15 1 -0.036028125 -0.00261666666667 0.006496875 0.0001
16 1 -0.036028125 -0.00261666666667 0.007678125 0.108059
17 1 -0.036028125 -0.00125 -0.007678125 0.128571
18 1 -0.036028125 -0.00125 -0.006496875 0.0001
19 1 -0.036028125 -0.00125 -0.005315625 0.136752
20 1 -0.036028125 -0.00125 -0.004134375 0.324786
21 1 -0.036028125 -0.00125 -0.002953125 0.487179
22 1 -0.036028125 -0.00125 -0.001771875 0.324786
23 1 -0.036028125 -0.00125 -0.000590625 0.504762
24 1 -0.036028125 -0.00125 0.000590625 0.262257
25 1 -0.036028125 -0.00125 0.001771875 0.037037
26 1 -0.036028125 -0.00125 0.002953125 0.074074
27 1 -0.036028125 -0.00125 0.004134375 0.099715
28 1 -0.036028125 -0.00125 0.005315625 0.099715
29 1 -0.036028125 -0.00125 0.006496875 0.0001
30 1 -0.036028125 -0.00125 0.007678125 0.108059
31 1 -0.036028125 0.000116666666667 -0.007678125 0.128571
32 1 -0.036028125 0.000116666666667 -0.006496875 0.0001
33 1 -0.036028125 0.000116666666667 -0.005315625 0.136752
34 1 -0.036028125 0.000116666666667 -0.004134375 0.324786
35 1 -0.036028125 0.000116666666667 -0.002953125 0.487179
36 1 -0.036028125 0.000116666666667 -0.001771875 0.324786
37 1 -0.036028125 0.000116666666667 -0.000590625 0.504762
38 1 -0.036028125 0.000116666666667 0.000590625 0.262257
39 1 -0.036028125 0.000116666666667 0.001771875 0.037037
40 1 -0.036028125 0.000116666666667 0.002953125 0.074074
41 1 -0.036028125 0.000116666666667 0.004134375 0.099715
42 1 -0.036028125 0.000116666666667 0.005315625 0.099715
43 1 -0.036028125 0.000116666666667 0.006496875 0.0001
44 1 -0.036028125 0.000116666666667 0.007678125 0.108059
45 1 -0.034846875 -0.00261666666667 -0.011221875 0.23422
46 1 -0.034846875 -0.00261666666667 -0.010040625 0.128917
47 1 -0.034846875 -0.00261666666667 -0.008859375 0.114286
48 1 -0.034846875 -0.00261666666667 -0.007678125 0.0751634
49 1 -0.034846875 -0.00261666666667 -0.006496875 0.0384615
50 1 -0.034846875 -0.00261666666667 -0.005315625 0.139601
51 1 -0.034846875 -0.00261666666667 -0.004134375 0.316239
52 1 -0.034846875 -0.00261666666667 -0.002953125 0.360399
53 1 -0.034846875 -0.00261666666667 -0.001771875 0.38604
54 1 -0.034846875 -0.00261666666667 -0.000590625 0.297721
55 1 -0.034846875 -0.00261666666667 0.000590625 0.257122
56 1 -0.034846875 -0.00261666666667 0.001771875 0.076923
57 1 -0.034846875 -0.00261666666667 0.002953125 0.0954416
58 1 -0.034846875 -0.00261666666667 0.004134375 0.425926
59 1 -0.034846875 -0.00261666666667 0.005315625 0.297721
60 1 -0.034846875 -0.00261666666667 0.006496875 0.025641
61 1 -0.034846875 -0.00261666666667 0.007678125 0.216042
62 1 -0.034846875 -0.00261666666667 0.008859375 0.452381
63 1 -0.034846875 -0.00261666666667 0.010040625 0.262108
64 1 -0.034846875 -0.00261666666667 0.011221875 0.0333333
65 1 -0.034846875 -0.00125 -0.011221875 0.23422
66 1 -0.034846875 -0.00125 -0.010040625 0.128917
67 1 -0.034846875 -0.00125 -0.008859375 0.114286
68 1 -0.034846875 -0.00125 -0.007678125 0.0751634
69 1 -0.034846875 -0.00125 -0.006496875 0.0384615
70 1 -0.034846875 -0.00125 -0.005315625 0.139601
71 1 -0.034846875 -0.00125 -0.004134375 0.316239
72 1 -0.034846875 -0.00125 -0.002953125 0.360399
73 1 -0.034846875 -0.00125 -0.001771875 0.38604
74 1 -0.034846875 -0.00125 -0.000590625 0.297721
75 1 -0.034846875 -0.00125 0.000590625 0.257122
76 1 -0.034846875 -0.00125 0.001771875 0.076923
77 1 -0.034846875 -0.00125 0.002953125 0.0954416
78 1 -0.034846875 -0.00125 0.004134375 0.425926
79 1 -0.034846875 -0.00125 0.005315625 0.297721
80 1 -0.034846875 -0.00125 0.006496875 0.025641
81 1 -0.034846875 -0.00125 0.007678125 0.216042
82 1 -0.034846875 -0.00125 0.008859375 0.452381
83 1 -0.034846875 -0.00125 0.010040625 0.262108
84 1 -0.034846875 -0.00125 0.011221875 0.0333333
85 1 -0.034846875 0.000116666666667 -0.011221875 0.23422
86 1 -0.034846875 0.000116666666667 -0.010040625 0.128917
87 1 -0.034846875 0.000116666666667 -0.008859375 0.114286
88 1 -0.034846875 0.000116666666667 -0.007678125 0.0751634
89 1 -0.034846875 0.000116666666667 -0.006496875 0.0384615
90 1 -0.034846875 0.000116666666667 -0.005315625 0.139601
91 1 -0.034846875 0.000116666666667 -0.004134375 0.316239
92 1 -0.034846875 0.000116666666667 -0.002953125 0.360399
93 1 -0.034846875 0.000116666666667 -0.001771875 0.38604
94 1 -0.034846875 0.000116666666667 -0.000590625 0.297721
95 1 -0.034846875 0.000116666666667 0.000590625 0.257122
96 1 -0.034846875 0.000116666666667 0.001771875 0.076923
97 1 -0.034846875 0.000116666666667 0.002953125 0.0954416
98 1 -0.034846875 0.000116666666667 0.004134375 0.425926
99 1 -0.034846875 0.000116666666667 0.005315625 0.297721
100 1 -0.034846875 0.000116666666667 0.006496875 0.025641
101 1 -0.034846875 0.000116666666667 0.007678125 0.216042
102 1 -0.034846875 0.000116666666667 0.008859375 0.452381
103 1 -0.034846875 0.000116666666667 0.010040625 0.262108
104 1 -0.034846875 0.000116666666667 0.011221875 0.0333333
105 1 -0.033665625 -0.00261666666667 -0.013584375 0.21732
106 1 -0.033665625 -0.00261666666667 -0.012403125 0.167379
107 1 -0.033665625 -0.00261666666667 -0.011221875 0.34188
108 1 -0.033665625 -0.00261666666667 -0.010040625 0.27208
109 1 -0.033665625 -0.00261666666667 -0.008859375 0.0918803
110 1 -0.033665625 -0.00261666666667 -0.007678125 0.0477208
111 1 -0.033665625 -0.00261666666667 -0.006496875 0.0633903
112 1 -0.033665625 -0.00261666666667 -0.005315625 0.143162
113 1 -0.033665625 -0.00261666666667 -0.004134375 0.440883
114 1 -0.033665625 -0.00261666666667 -0.002953125 0.507123
115 1 -0.033665625 -0.00261666666667 -0.001771875 0.3198
116 1 -0.033665625 -0.00261666666667 -0.000590625 0.395299
117 1 -0.033665625 -0.00261666666667 0.000590625 0.356481
118 1 -0.033665625 -0.00261666666667 0.001771875 0.288461
119 1 -0.033665625 -0.00261666666667 0.002953125 0.260684
120 1 -0.033665625 -0.00261666666667 0.004134375 0.396724
121 1 -0.033665625 -0.00261666666667 0.005315625 0.402421
122 1 -0.033665625 -0.00261666666667 0.006496875 0.32906
123 1 -0.033665625 -0.00261666666667 0.007678125 0.31161
124 1 -0.033665625 -0.00261666666667 0.008859375 0.496439
125 1 -0.033665625 -0.00261666666667 0.010040625 0.266382
126 1 -0.033665625 -0.00261666666667 0.011221875 0.2447
127 1 -0.033665625 -0.00261666666667 0.012403125 0.563472
128 1 -0.033665625 -0.00261666666667 0.013584375 0.224377
129 1 -0.033665625 -0.00125 -0.013584375 0.21732
130 1 -0.033665625 -0.00125 -0.012403125 0.167379
131 1 -0.033665625 -0.00125 -0.011221875 0.34188
132 1 -0.033665625 -0.00125 -0.010040625 0.27208
133 1 -0.033665625 -0.00125 -0.008859375 0.0918803
134 1 -0.033665625 -0.00125 -0.007678125 0.0477208
135 1 -0.033665625 -0.00125 -0.006496875 0.0633903
136 1 -0.033665625 -0.00125 -0.005315625 0.143162
137 1 -0.033665625 -0.00125 -0.004134375 0.440883
138 1 -0.033665625 -0.00125 -0.002953125 0.507123
139 1 -0.033665625 -0.00125 -0.001771875 0.3198
140 1 -0.033665625 -0.00125 -0.000590625 0.395299
141 1 -0.033665625 -0.00125 0.000590625 0.356481
142 1 -0.033665625 -0.00125 0.001771875 0.288461
143 1 -0.033665625 -0.00125 0.002953125 0.260684
144 1 -0.033665625 -0.00125 0.004134375 0.396724
145 1 -0.033665625 -0.00125 0.005315625 0.402421
146 1 -0.033665625 -0.00125 0.006496875 0.32906
147 1 -0.033665625 -0.00125 0.007678125 0.31161
148 1 -0.033665625 -0.00125 0.008859375 0.496439
149 1 -0.033665625 -0.00125 0.010040625 0.266382
150 1 -0.033665625 -0.00125 0.011221875 0.2447
151 1 -0.033665625 -0.00125 0.012403125 0.563472
152 1 -0.033665625 -0.00125 0.013584375 0.224377
153 1 -0.033665625 0.000116666666667 -0.013584375 0.21732
154 1 -0.033665625 0.000116666666667 -0.012403125 0.167379
155 1 -0.033665625 0.000116666666667 -0.011221875 0.34188
156 1 -0.033665625 0.000116666666667 -0.010040625 0.27208
157 1 -0.033665625 0.000116666666667 -0.008859375 0.0918803
158 1 -0.033665625 0.000116666666667 -0.007678125 0.0477208
159 1 -0.033665625 0.000116666666667 -0.006496875 0.0633903
160 1 -0.033665625 0.000116666666667 -0.005315625 0.143162
161 1 -0.033665625 0.000116666666667 -0.004134375 0.440883
162 1 -0.033665625 0.000116666666667 -0.002953125 0.507123
163 1 -0.033665625 0.000116666666667 -0.001771875 0.3198
164 1 -0.033665625 0.000116666666667 -0.000590625 0.395299
165 1 -0.033665625 0.000116666666667 0.000590625 0.356481
166 1 -0.033665625 0.000116666666667 0.001771875 0.288461
167 1 -0.033665625 0.000116666666667 0.002953125 0.260684
168 1 -0.033665625 0.000116666666667 0.004134375 0.396724
169 1 -0.033665625 0.000116666666667 0.005315625 0.402421
170 1 -0.033665625 0.000116666666667 0.006496875 0.32906
171 1 -0.033665625 0.000116666666667 0.007678125 0.31161
172 1 -0.033665625 0.000116666666667 0.008859375 0.496439
173 1 -0.033665625 0.000116666666667 0.010040625 0.266382
174 1 -0.033665625 0.000116666666667 0.011221875 0.2447
175 1 -0.033665625 0.000116666666667 0.012403125 0.563472
176 1 -0.033665625 0.000116666666667 0.013584375 0.224377
177 1 -0.032484375 -0.00261666666667 -0.018309375 0.433333
178 1 -0.032484375 -0.00261666666667 -0.017128125 0.352381
179 1 -0.032484375 -0.00261666666667 -0.015946875 0.490196
180 1 -0.032484375 -0.00261666666667 -0.014765625 0.202279
181 1 -0.032484375 -0.00261666666667 -0.013584375 0.121083
182 1 -0.032484375 -0.00261666666667 -0.012403125 0.117521
183 1 -0.032484375 -0.00261666666667 -0.011221875 0.304843
184 1 -0.032484375 -0.00261666666667 -0.010040625 0.488604
185 1 -0.032484375 -0.00261666666667 -0.008859375 0.411681
186 1 -0.032484375 -0.00261666666667 -0.007678125 0.323362
187 1 -0.032484375 -0.00261666666667 -0.006496875 0.235042
188 1 -0.032484375 -0.00261666666667 -0.005315625 0.45584
189 1 -0.032484375 -0.00261666666667 -0.004134375 0.709402
190 1 -0.032484375 -0.00261666666667 -0.002953125 0.72792
191 1 -0.032484375 -0.00261666666667 -0.001771875 0.511396
192 1 -0.032484375 -0.00261666666667 -0.000590625 0.525641
193 1 -0.032484375 -0.00261666666667 0.000590625 0.275641
194 1 -0.032484375 -0.00261666666667 0.001771875 0.260684
195 1 -0.032484375 -0.00261666666667 0.002953125 0.279202
196 1 -0.032484375 -0.00261666666667 0.004134375 0.444444
197 1 -0.032484375 -0.00261666666667 0.005315625 0.38604
198 1 -0.032484375 -0.00261666666667 0.006496875 0.474359
199 1 -0.032484375 -0.00261666666667 0.007678125 0.487179
200 1 -0.032484375 -0.00261666666667 0.008859375 0.367521
201 1 -0.032484375 -0.00261666666667 0.010040625 0.235043
202 1 -0.032484375 -0.00261666666667 0.011221875 0.367521
203 1 -0.032484375 -0.00261666666667 0.012403125 0.423077
204 1 -0.032484375 -0.00261666666667 0.013584375 0.44302
205 1 -0.032484375 -0.00261666666667 0.014765625 0.353276
206 1 -0.032484375 -0.00261666666667 0.015946875 0.0196078
207 1 -0.032484375 -0.00261666666667 0.017128125 0.0001
208 1 -0.032484375 -0.00261666666667 0.018309375 0.0001
209 1 -0.032484375 -0.00125 -0.018309375 0.433333
210 1 -0.032484375 -0.00125 -0.017128125 0.352381
211 1 -0.032484375 -0.00125 -0.015946875 0.490196
212 1 -0.032484375 -0.00125 -0.014765625 0.202279
213 1 -0.032484375 -0.00125 -0.013584375 0.121083
214 1 -0.032484375 -0.00125 -0.012403125 0.117521
215 1 -0.032484375 -0.00125 -0.011221875 0.304843
216 1 -0.032484375 -0.00125 -0.010040625 0.488604
217 1 -0.032484375 -0.00125 -0.008859375 0.411681
218 1 -0.032484375 -0.00125 -0.007678125 0.323362
219 1 -0.032484375 -0.00125 -0.006496875 0.235042
220 1 -0.032484375 -0.00125 -0.005315625 0.45584
221 1 -0.032484375 -0.00125 -0.004134375 0.709402
222 1 -0.032484375 -0.00125 -0.002953125 0.72792
223 1 -0.032484375 -0.00125 -0.001771875 0.511396
224 1 -0.032484375 -0.00125 -0.000590625 0.525641
225 1 -0.032484375 -0.00125 0.000590625 0.275641
226 1 -0.032484375 -0.00125 0.001771875 0.260684
227 1 -0.032484375 -0.00125 0.002953125 0.279202
228 1 -0.032484375 -0.00125 0.004134375 0.444444
229 1 -0.032484375 -0.00125 0.005315625 0.38604
230 1 -0.032484375 -0.00125 0.006496875 0.474359
231 1 -0.032484375 -0.00125 0.007678125 0.487179
232 1 -0.032484375 -0.00125 0.008859375 0.367521
233 1 -0.032484375 -0.00125 0.010040625 0.235043
234 1 -0.032484375 -0.00125 0.011221875 0.367521
235 1 -0.032484375 -0.00125 0.012403125 0.423077
236 1 -0.032484375 -0.00125 0.013584375 0.44302
237 1 -0.032484375 -0.00125 0.014765625 0.353276
238 1 -0.032484375 -0.00125 0.015946875 0.0196078
239 1 -0.032484375 -0.00125 0.017128125 0.0001
240 1 -0.032484375 -0.00125 0.018309375 0.0001
241 1 -0.032484375 0.000116666666667 -0.018309375 0.433333
242 1 -0.032484375 0.000116666666667 -0.017128125 0.352381
243 1 -0.032484375 0.000116666666667 -0.015946875 0.490196
244 1 -0.032484375 0.000116666666667 -0.014765625 0.202279
245 1 -0.032484375 0.000116666666667 -0.013584375 0.121083
246 1 -0.032484375 0.000116666666667 -0.012403125 0.117521
247 1 -0.032484375 0.000116666666667 -0.011221875 0.304843
248 1 -0.032484375 0.000116666666667 -0.010040625 0.488604
249 1 -0.032484375 0.000116666666667 -0.008859375 0.411681
250 1 -0.032484375 0.000116666666667 -0.007678125 0.323362
251 1 -0.032484375 0.000116666666667 -0.006496875 0.235042
252 1 -0.032484375 0.000116666666667 -0.005315625 0.45584
253 1 -0.032484375 0.000116666666667 -0.004134375 0.709402
254 1 -0.032484375 0.000116666666667 -0.002953125 0.72792
255 1 -0.032484375 0.000116666666667 -0.001771875 0.511396
256 1 -0.032484375 0.000116666666667 -0.000590625 0.525641
257 1 -0.032484375 0.000116666666667 0.000590625 0.275641
258 1 -0.032484375 0.000116666666667 0.001771875 0.260684
259 1 -0.032484375 0.000116666666667 0.002953125 0.279202
260 1 -0.032484375 0.000116666666667 0.004134375 0.444444
261 1 -0.032484375 0.000116666666667 0.005315625 0.38604
262 1 -0.032484375 0.000116666666667 0.006496875 0.474359
263 1 -0.032484375 0.000116666666667 0.007678125 0.487179
264 1 -0.032484375 0.000116666666667 0.008859375 0.367521
265 1 -0.032484375 0.000116666666667 0.010040625 0.235043
266 1 -0.032484375 0.000116666666667 0.011221875 0.367521
267 1 -0.032484375 0.000116666666667 0.012403125 0.423077
268 1 -0.032484375 0.000116666666667 0.013584375 0.44302
269 1 -0.032484375 0.000116666666667 0.014765625 0.353276
270 1 -0.032484375 0.000116666666667 0.015946875 0.0196078
271 1 -0.032484375 0.000116666666667 0.017128125 0.0001
272 1 -0.032484375 0.000116666666667 0.018309375 0.0001
273 1 -0.031303125 -0.00261666666667 -0.019490625 0.0619048
274 1 -0.031303125 -0.00261666666667 -0.018309375 0.236928
275 1 -0.031303125 -0.00261666666667 -0.017128125 0.393162
276 1 -0.031303125 -0.00261666666667 -0.015946875 0.581197
277 1 -0.031303125 -0.00261666666667 -0.014765625 0.532763
278 1 -0.031303125 -0.00261666666667 -0.013584375 0.418803
279 1 -0.031303125 -0.00261666666667 -0.012403125 0.387464
280 1 -0.031303125 -0.00261666666667 -0.011221875 0.374644
281 1 -0.031303125 -0.00261666666667 -0.010040625 0.569801
282 1 -0.031303125 -0.00261666666667 -0.008859375 0.425926
283 1 -0.031303125 -0.00261666666667 -0.007678125 0.551282
284 1 -0.031303125 -0.00261666666667 -0.006496875 0.468661
285 1 -0.031303125 -0.00261666666667 -0.005315625 0.874644
286 1 -0.031303125 -0.00261666666667 -0.004134375 0.739316
287 1 -0.031303125 -0.00261666666667 -0.002953125 0.584046
288 1 -0.031303125 -0.00261666666667 -0.001771875 0.474359
289 1 -0.031303125 -0.00261666666667 -0.000590625 0.367521
290 1 -0.031303125 -0.00261666666667 0.000590625 0.292022
291 1 -0.031303125 -0.00261666666667 0.001771875 0.462963
292 1 -0.031303125 -0.00261666666667 0.002953125 0.576923
293 1 -0.031303125 -0.00261666666667 0.004134375 0.45584
294 1 -0.031303125 -0.00261666666667 0.005315625 0.349003
295 1 -0.031303125 -0.00261666666667 0.006496875 0.669516
296 1 -0.031303125 -0.00261666666667 0.007678125 0.490741
297 1 -0.031303125 -0.00261666666667 0.008859375 0.286325
298 1 -0.031303125 -0.00261666666667 0.010040625 0.349003
299 1 -0.031303125 -0.00261666666667 0.011221875 0.495727
300 1 -0.031303125 -0.00261666666667 0.012403125 0.448718
301 1 -0.031303125 -0.00261666666667 0.013584375 0.643163
302 1 -0.031303125 -0.00261666666667 0.014765625 0.367521
303 1 -0.031303125 -0.00261666666667 0.015946875 0.0883191
304 1 -0.031303125 -0.00261666666667 0.017128125 0.0001
305 1 -0.031303125 -0.00261666666667 0.018309375 0.0001
306 1 -0.031303125 -0.00261666666667 0.019490625 0.0001
307 1 -0.031303125 -0.00125 -0.019490625 0.0619048
308 1 -0.031303125 -0.00125 -0.018309375 0.236928
309 1 -0.031303125 -0.00125 -0.017128125 0.393162
310 1 -0.031303125 -0.00125 -0.015946875 0.581197
311 1 -0.031303125 -0.00125 -0.014765625 0.532763
312 1 -0.031303125 -0.00125 -0.013584375 0.418803
313 1 -0.031303125 -0.00125 -0.012403125 0.387464
314 1 -0.031303125 -0.00125 -0.011221875 0.374644
315 1 -0.031303125 -0.00125 -0.010040625 0.569801
316 1 -0.031303125 -0.00125 -0.008859375 0.425926
317 1 -0.031303125 -0.00125 -0.007678125 0.551282
318 1 -0.031303125 -0.00125 -0.006496875 0.468661
319 1 -0.031303125 -0.00125 -0.005315625 0.874644
320 1 -0.031303125 -0.00125 -0.004134375 0.739316
321 1 -0.031303125 -0.00125 -0.002953125 0.584046
322 1 -0.031303125 -0.00125 -0.001771875 0.474359
323 1 -0.031303125 -0.00125 -0.000590625 0.367521
324 1 -0.031303125 -0.00125 0.000590625 0.292022
325 1 -0.031303125 -0.00125 0.001771875 0.462963
326 1 -0.031303125 -0.00125 0.002953125 0.576923
327 1 -0.031303125 -0.00125 0.004134375 0.45584
328 1 -0.031303125 -0.00125 0.005315625 0.349003
329 1 -0.031303125 -0.00125 0.006496875 0.669516
330 1 -0.031303125 -0.00125 0.007678125 0.490741
331 1 -0.031303125 -0.00125 0.008859375 0.286325
332 1 -0.031303125 -0.00125 0.010040625 0.349003
333 1 -0.031303125 -0.00125 0.011221875 0.495727
334 1 -0.031303125 -0.00125 0.012403125 0.448718
335 1 -0.031303125 -0.00125 0.013584375 0.643163
336 1 -0.031303125 -0.00125 0.014765625 0.367521
337 1 -0.031303125 -0.00125 0.015946875 0.0883191
338 1 -0.031303125 -0.00125 0.017128125 0.0001
339 1 -0.031303125 -0.00125 0.018309375 0.0001
340 1 -0.031303125 -0.00125 0.019490625 0.0001
341 1 -0.031303125 0.000116666666667 -0.019490625 0.0619048
342 1 -0.031303125 0.000116666666667 -0.018309375 0.236928
343 1 -0.031303125 0.000116666666667 -0.017128125 0.393162
344 1 -0.031303125 0.000116666666667 -0.015946875 0.581197
345 1 -0.031303125 0.000116666666667 -0.014765625 0.532763
346 1 -0.031303125 0.000116666666667 -0.013584375 0.418803
347 1 -0.031303125 0.000116666666667 -0.012403125 0.387464
348 1 -0.031303125 0.000116666666667 -0.011221875 0.374644
349 1 -0.031303125 0.000116666666667 -0.010040625 0.569801
350 1 -0.031303125 0.000116666666667 -0.008859375 0.425926
351 1 -0.031303125 0.000116666666667 -0.007678125 0.551282
352 1 -0.031303125 0.000116666666667 -0.006496875 0.468661
353 1 -0.031303125 0.000116666666667 -0.005315625 0.874644
354 1 -0.031303125 0.000116666666667 -0.004134375 0.739316
355 1 -0.031303125 0.000116666666667 -0.002953125 0.584046
356 1 -0.031303125 0.000116666666667 -0.001771875 0.474359
357 1 -0.031303125 0.000116666666667 -0.000590625 0.367521
358 1 -0.031303125 0.000116666666667 0.000590625 0.292022
359 1 -0.031303125 0.000116666666667 0.001771875 0.462963
360 1 -0.031303125 0.000116666666667 0.002953125 0.576923
361 1 -0.031303125 0.000116666666667 0.004134375 0.45584
362 1 -0.031303125 0.000116666666667 0.005315625 0.349003
363 1 -0.031303125 0.000116666666667 0.006496875 0.669516
364 1 -0.031303125 0.000116666666667 0.007678125 0.490741
365 1 -0.031303125 0.000116666666667 0.008859375 0.286325
366 1 -0.031303125 0.000116666666667 0.010040625 0.349003
367 1 -0.031303125 0.000116666666667 0.011221875 0.495727
368 1 -0.031303125 0.000116666666667 0.012403125 0.448718
369 1 -0.031303125 0.000116666666667 0.013584375 0.643163
370 1 -0.031303125 0.000116666666667 0.014765625 0.367521
371 1 -0.031303125 0.000116666666667 0.015946875 0.0883191
372 1 -0.031303125 0.000116666666667 0.017128125 0.0001
373 1 -0.031303125 0.000116666666667 0.018309375 0.0001
374 1 -0.031303125 0.000116666666667 0.019490625 0.0001
375 1 -0.030121875 -0.00261666666667 -0.020671875 0.0416667
376 1 -0.030121875 -0.00261666666667 -0.019490625 0.0477208
377 1 -0.030121875 -0.00261666666667 -0.018309375 0.297721
378 1 -0.030121875 -0.00261666666667 -0.017128125 0.279202
379 1 -0.030121875 -0.00261666666667 -0.015946875 0.551282
380 1 -0.030121875 -0.00261666666667 -0.014765625 0.827635
381 1 -0.030121875 -0.00261666666667 -0.013584375 0.588319
382 1 -0.030121875 -0.00261666666667 -0.012403125 0.497863
383 1 -0.030121875 -0.00261666666667 -0.011221875 0.683761
384 1 -0.030121875 -0.00261666666667 -0.010040625 0.676638
385 1 -0.030121875 -0.00261666666667 -0.008859375 0.437322
386 1 -0.030121875 -0.00261666666667 -0.007678125 0.279202
387 1 -0.030121875 -0.00261666666667 -0.006496875 0.595442
388 1 -0.030121875 -0.00261666666667 -0.005315625 0.64245
389 1 -0.030121875 -0.00261666666667 -0.004134375 0.411681
390 1 -0.030121875 -0.00261666666667 -0.002953125 0.38604
391 1 -0.030121875 -0.00261666666667 -0.001771875 0.349003
392 1 -0.030121875 -0.00261666666667 -0.000590625 0.470086
393 1 -0.030121875 -0.00261666666667 0.000590625 0.648861
394 1 -0.030121875 -0.00261666666667 0.001771875 0.646724
395 1 -0.030121875 -0.00261666666667 0.002953125 0.695157
396 1 -0.030121875 -0.00261666666667 0.004134375 0.551282
397 1 -0.030121875 -0.00261666666667 0.005315625 0.581197
398 1 -0.030121875 -0.00261666666667 0.006496875 0.683761
399 1 -0.030121875 -0.00261666666667 0.007678125 0.529202
400 1 -0.030121875 -0.00261666666667 0.008859375 0.425926
401 1 -0.030121875 -0.00261666666667 0.010040625 0.665242
402 1 -0.030121875 -0.00261666666667 0.011221875 0.779202
403 1 -0.030121875 -0.00261666666667 0.012403125 0.61396
404 1 -0.030121875 -0.00261666666667 0.013584375 0.544159
405 1 -0.030121875 -0.00261666666667 0.014765625 0.139601
406 1 -0.030121875 -0.00261666666667 0.015946875 0.0698006
407 1 -0.030121875 -0.00261666666667 0.017128125 0.0441596
408 1 -0.030121875 -0.00261666666667 0.018309375 0.0001
409 1 -0.030121875 -0.00261666666667 0.019490625 0.0001
410 1 -0.030121875 -0.00261666666667 0.020671875 0.0001
411 1 -0.030121875 -0.00125 -0.020671875 0.0416667
412 1 -0.030121875 -0.00125 -0.019490625 0.0477208
413 1 -0.030121875 -0.00125 -0.018309375 0.297721
414 1 -0.030121875 -0.00125 -0.017128125 0.279202
415 1 -0.030121875 -0.00125 -0.015946875 0.551282
416 1 -0.030121875 -0.00125 -0.014765625 0.827635
417 1 -0.030121875 -0.00125 -0.013584375 0.588319
418 1 -0.030121875 -0.00125 -0.012403125 0.497863
419 1 -0.030121875 -0.00125 -0.011221875 0.683761
420 1 -0.030121875 -0.00125 -0.010040625 0.676638
421 1 -0.030121875 -0.00125 -0.008859375 0.437322
422 1 -0.030121875 -0.00125 -0.007678125 0.279202
423 1 -0.030121875 -0.00125 -0.006496875 0.595442
424 1 -0.030121875 -0.00125 -0.005315625 0.64245
425 1 -0.030121875 -0.00125 -0.004134375 0.411681
426 1 -0.030121875 -0.00125 -0.002953125 0.38604
427 1 -0.030121875 -0.00125 -0.001771875 0.349003
428 1 -0.030121875 -0.00125 -0.000590625 0.470086
429 1 -0.030121875 -0.00125 0.000590625 0.648861
430 1 -0.030121875 -0.00125 0.001771875 0.646724
431 1 -0.030121875 -0.00125 0.002953125 0.695157
432 1 -0.030121875 -0.00125 0.004134375 0.551282
433 1 -0.030121875 -0.00125 0.005315625 0.581197
434 1 -0.030121875 -0.00125 0.006496875 0.683761
435 1 -0.030121875 -0.00125 0.007678125 0.529202
436 1 -0.030121875 -0.00125 0.008859375 0.425926
437 1 -0.030121875 -0.00125 0.010040625 0.665242
438 1 -0.030121875 -0.00125 0.011221875 0.779202
439 1 -0.030121875 -0.00125 0.012403125 0.61396
440 1 -0.030121875 -0.00125 0.013584375 0.544159
441 1 -0.030121875 -0.00125 0.014765625 0.139601
442 1 -0.030121875 -0.00125 0.015946875 0.0698006
443 1 -0.030121875 -0.00125 0.017128125 0.0441596
444 1 -0.030121875 -0.00125 0.018309375 0.0001
445 1 -0.030121875 -0.00125 0.019490625 0.0001
446 1 -0.030121875 -0.00125 0.020671875 0.0001
447 1 -0.030121875 0.000116666666667 -0.020671875 0.0416667
448 1 -0.030121875 0.000116666666667 -0.019490625 0.0477208
449 1 -0.030121875 0.000116666666667 -0.018309375 0.297721
450 1 -0.030121875 0.000116666666667 -0.017128125 0.279202
451 1 -0.030121875 0.000116666666667 -0.015946875 0.551282
452 1 -0.030121875 0.000116666666667 -0.014765625 0.827635
453 1 -0.030121875 0.000116666666667 -0.013584375 0.588319
454 1 -0.030121875 0.000116666666667 -0.012403125 0.497863
455 1 -0.030121875 0.000116666666667 -0.011221875 0.683761
456 1 -0.030121875 0.000116666666667 -0.010040625 0.676638
457 1 -0.030121875 0.000116666666667 -0.008859375 0.437322
458 1 -0.030121875 0.000116666666667 -0.007678125 0.279202
459 1 -0.030121875 0.000116666666667 -0.006496875 0.595442
460 1 -0.030121875 0.000116666666667 -0.005315625 0.64245
461 1 -0.030121875 0.000116666666667 -0.004134375 0.411681
462 1 -0.030121875 0.000116666666667 -0.002953125 0.38604
463 1 -0.030121875 0.000116666666667 -0.001771875 0.349003
464 1 -0.030121875 0.000116666666667 -0.000590625 0.470086
465 1 -0.030121875 0.000116666666667 0.000590625 0.648861
466 1 -0.030121875 0.000116666666667 0.001771875 0.646724
467 1 -0.030121875 0.000116666666667 0.002953125 0.695157
468 1 -0.030121875 0.000116666666667 0.004134375 0.551282
469 1 -0.030121875 0.000116666666667 0.005315625 0.581197
470 1 -0.030121875 0.000116666666667 0.006496875 0.683761
471 1 -0.030121875 0.000116666666667 0.007678125 0.529202
472 1 -0.030121875 0.000116666666667 0.008859375 0.425926
473 1 -0.030121875 0.000116666666667 0.010040625 0.665242
474 1 -0.030121875 0.000116666666667 0.011221875 0.779202
475 1 -0.030121875 0.000116666666667 0.012403125 0.61396
476 1 -0.030121875 0.000116666666667 0.013584375 0.544159
477 1 -0.030121875 0.000116666666667 0.014765625 0.139601
478 1 -0.030121875 0.000116666666667 0.015946875 0.0698006
479 1 -0.030121875 0.000116666666667 0.017128125 0.0441596
480 1 -0.030121875 0.000116666666667 0.018309375 0.0001
481 1 -0.030121875 0.000116666666667 0.019490625 0.0001
482 1 -0.030121875 0.000116666666667 0.020671875 0.0001
483 1 -0.028940625 -0.00261666666667 -0.021853125 0.418746
484 1 -0.028940625 -0.00261666666667 -0.020671875 0.301471
485 1 -0.028940625 -0.00261666666667 -0.019490625 0.0897435
486 1 -0.028940625 -0.00261666666667 -0.018309375 0.393162
487 1 -0.028940625 -0.00261666666667 -0.017128125 0.525641
488 1 -0.028940625 -0.00261666666667 -0.015946875 0.621083
489 1 -0.028940625 -0.00261666666667 -0.014765625 0.65812
490 1 -0.028940625 -0.00261666666667 -0.013584375 0.303419
491 1 -0.028940625 -0.00261666666667 -0.012403125 0.672365
492 1 -0.028940625 -0.00261666666667 -0.011221875 0.606838
493 1 -0.028940625 -0.00261666666667 -0.010040625 0.551282
494 1 -0.028940625 -0.00261666666667 -0.008859375 0.470085
495 1 -0.028940625 -0.00261666666667 -0.007678125 0.54416
496 1 -0.028940625 -0.00261666666667 -0.006496875 0.453704
497 1 -0.028940625 -0.00261666666667 -0.005315625 0.393162
498 1 -0.028940625 -0.00261666666667 -0.004134375 0.481481
499 1 -0.028940625 -0.00261666666667 -0.002953125 0.474359
500 1 -0.028940625 -0.00261666666667 -0.001771875 0.374644
501 1 -0.028940625 -0.00261666666667 -0.000590625 0.602564
502 1 -0.028940625 -0.00261666666667 0.000590625 0.652422
503 1 -0.028940625 -0.00261666666667 0.001771875 0.5
504 1 -0.028940625 -0.00261666666667 0.002953125 0.665242
505 1 -0.028940625 -0.00261666666667 0.004134375 0.669516
506 1 -0.028940625 -0.00261666666667 0.005315625 0.746439
507 1 -0.028940625 -0.00261666666667 0.006496875 0.462963
508 1 -0.028940625 -0.00261666666667 0.007678125 0.63604
509 1 -0.028940625 -0.00261666666667 0.008859375 0.683761
510 1 -0.028940625 -0.00261666666667 0.010040625 0.606838
511 1 -0.028940625 -0.00261666666667 0.011221875 0.38604
512 1 -0.028940625 -0.00261666666667 0.012403125 0.488604
513 1 -0.028940625 -0.00261666666667 0.013584375 0.339743
514 1 -0.028940625 -0.00261666666667 0.014765625 0.0698005
515 1 -0.028940625 -0.00261666666667 0.015946875 0.051282
516 1 -0.028940625 -0.00261666666667 0.017128125 0.0001
517 1 -0.028940625 -0.00261666666667 0.018309375 0.0001
518 1 -0.028940625 -0.00261666666667 0.019490625 0.0001
519 1 -0.028940625 -0.00261666666667 0.020671875 0.0128205
520 1 -0.028940625 -0.00261666666667 0.021853125 0.0001
521 1 -0.028940625 -0.00125 -0.021853125 0.418746
522 1 -0.028940625 -0.00125 -0.020671875 0.301471
523 1 -0.028940625 -0.00125 -0.019490625 0.0897435
524 1 -0.028940625 -0.00125 -0.018309375 0.393162
525 1 -0.028940625 -0.00125 -0.017128125 0.525641
526 1 -0.028940625 -0.00125 -0.015946875 0.621083
527 1 -0.028940625 -0.00125 -0.014765625 0.65812
528 1 -0.028940625 -0.00125 -0.013584375 0.303419
529 1 -0.028940625 -0.00125 -0.012403125 0.672365
530 1 -0.028940625 -0.00125 -0.011221875 0.606838
531 1 -0.028940625 -0.00125 -0.010040625 0.551282
532 1 -0.028940625 -0.00125 -0.008859375 0.470085
533 1 -0.028940625 -0.00125 -0.007678125 0.54416
534 1 -0.028940625 -0.00125 -0.006496875 0.453704
535 1 -0.028940625 -0.00125 -0.005315625 0.393162
536 1 -0.028940625 -0.00125 -0.004134375 0.481481
537 1 -0.028940625 -0.00125 -0.002953125 0.474359
538 1 -0.028940625 -0.00125 -0.001771875 0.374644