ITEM: TIMESTEP
0
ITEM: NUMBER OF ATOMS
9240
ITEM: BOX BOUNDS ss ss ss
-3.7007399999999996e-02 3.7007399999999996e-02
-2.0002499999999999e-03 2.5000000000000004e-07
-3.7007399999999996e-02 3.7007399999999996e-02
ITEM: ATOMS id type x y z c_1
0 1 -0.037209375 -0.00261666666667 -0.000590625 1.0
1 1 -0.037209375 -0.00125 -0.000590625 1.0
2 1 -0.037209375 0.000116666666667 -0.000590625 1.0
3 1 -0.036028125 -0.00261666666667 -0.007678125 0.161905
4 1 -0.036028125 -0.00261666666667 -0.006496875 0.062678
5 1 -0.036028125 -0.00261666666667 -0.005315625 0.250712
6 1 -0.036028125 -0.00261666666667 -0.004134375 0.39886
7 1 -0.036028125 -0.00261666666667 -0.002953125 0.424501
8 1 -0.036028125 -0.00261666666667 -0.001771875 0.350427
9 1 -0.036028125 -0.00261666666667 -0.000590625 0.657143
10 1 -0.036028125 -0.00261666666667 0.000590625 0.350974
11 1 -0.036028125 -0.00261666666667 0.001771875 0.461538
12 1 -0.036028125 -0.00261666666667 0.002953125 0.225071
13 1 -0.036028125 -0.00261666666667 0.004134375 0.0001
14 1 -0.036028125 -0.00261666666667 0.005315625 0.099715
15 1 -0.036028125 -0.00261666666667 0.006496875 0.0498575
16 1 -0.036028125 -0.00261666666667 0.007678125 0.0001
17 1 -0.036028125 -0.00125 -0.007678125 0.161905
18 1 -0.036028125 -0.00125 -0.006496875 0.062678
19 1 -0.036028125 -0.00125 -0.005315625 0.250712
20 1 -0.036028125 -0.00125 -0.004134375 0.39886
21 1 -0.036028125 -0.00125 -0.002953125 0.424501
22 1 -0.036028125 -0.00125 -0.001771875 0.350427
23 1 -0.036028125 -0.00125 -0.000590625 0.657143
24 1 -0.036028125 -0.00125 0.000590625 0.350974
25 1 -0.036028125 -0.00125 0.001771875 0.461538
26 1 -0.036028125 -0.00125 0.002953125 0.225071
27 1 -0.036028125 -0.00125 0.004134375 0.0001
28 1 -0.036028125 -0.00125 0.005315625 0.099715
29 1 -0.036028125 -0.00125 0.006496875 0.0498575
30 1 -0.036028125 -0.00125 0.007678125 0.0001
31 1 -0.036028125 0.000116666666667 -0.007678125 0.161905
32 1 -0.036028125 0.000116666666667 -0.006496875 0.062678
33 1 -0.036028125 0.000116666666667 -0.005315625 0.250712
34 1 -0.036028125 0.000116666666667 -0.004134375 0.39886
35 1 -0.036028125 0.000116666666667 -0.002953125 0.424501
36 1 -0.036028125 0.000116666666667 -0.001771875 0.350427
37 1 -0.036028125 0.000116666666667 -0.000590625 0.657143
38 1 -0.036028125 0.000116666666667 0.000590625 0.350974
39 1 -0.036028125 0.000116666666667 0.001771875 0.461538
40 1 -0.036028125 0.000116666666667 0.002953125 0.225071
41 1 -0.036028125 0.000116666666667 0.004134375 0.0001
42 1 -0.036028125 0.000116666666667 0.005315625 0.099715
43 1 -0.036028125 0.000116666666667 0.006496875 0.0498575
44 1 -0.036028125 0.000116666666667 0.007678125 0.0001
45 1 -0.034846875 -0.00261666666667 -0.011221875 0.0333333
46 1 -0.034846875 -0.00261666666667 -0.010040625 0.39886
47 1 -0.034846875 -0.00261666666667 -0.008859375 0.547619
48 1 -0.034846875 -0.00261666666667 -0.007678125 0.45098
49 1 -0.034846875 -0.00261666666667 -0.006496875 0.253561
50 1 -0.034846875 -0.00261666666667 -0.005315625 0.349003
51 1 -0.034846875 -0.00261666666667 -0.004134375 0.45584
52 1 -0.034846875 -0.00261666666667 -0.002953125 0.5
53 1 -0.034846875 -0.00261666666667 -0.001771875 0.38604
54 1 -0.034846875 -0.00261666666667 -0.000590625 0.576068
55 1 -0.034846875 -0.00261666666667 0.000590625 0.528965
56 1 -0.034846875 -0.00261666666667 0.001771875 0.441595
57 1 -0.034846875 -0.00261666666667 0.002953125 0.38604
58 1 -0.034846875 -0.00261666666667 0.004134375 0.139601
59 1 -0.034846875 -0.00261666666667 0.005315625 0.11396
60 1 -0.034846875 -0.00261666666667 0.006496875 0.218661
61 1 -0.034846875 -0.00261666666667 0.007678125 0.0555557
62 1 -0.034846875 -0.00261666666667 0.008859375 0.295238
63 1 -0.034846875 -0.00261666666667 0.010040625 0.350427
64 1 -0.034846875 -0.00261666666667 0.011221875 0.242857
65 1 -0.034846875 -0.00125 -0.011221875 0.0333333
66 1 -0.034846875 -0.00125 -0.010040625 0.39886
67 1 -0.034846875 -0.00125 -0.008859375 0.547619
68 1 -0.034846875 -0.00125 -0.007678125 0.45098
69 1 -0.034846875 -0.00125 -0.006496875 0.253561
70 1 -0.034846875 -0.00125 -0.005315625 0.349003
71 1 -0.034846875 -0.00125 -0.004134375 0.45584
72 1 -0.034846875 -0.00125 -0.002953125 0.5
73 1 -0.034846875 -0.00125 -0.001771875 0.38604
74 1 -0.034846875 -0.00125 -0.000590625 0.576068
75 1 -0.034846875 -0.00125 0.000590625 0.528965
76 1 -0.034846875 -0.00125 0.001771875 0.441595
77 1 -0.034846875 -0.00125 0.002953125 0.38604
78 1 -0.034846875 -0.00125 0.004134375 0.139601
79 1 -0.034846875 -0.00125 0.005315625 0.11396
80 1 -0.034846875 -0.00125 0.006496875 0.218661
81 1 -0.034846875 -0.00125 0.007678125 0.0555557
82 1 -0.034846875 -0.00125 0.008859375 0.295238
83 1 -0.034846875 -0.00125 0.010040625 0.350427
84 1 -0.034846875 -0.00125 0.011221875 0.242857
85 1 -0.034846875 0.000116666666667 -0.011221875 0.0333333
86 1 -0.034846875 0.000116666666667 -0.010040625 0.39886
87 1 -0.034846875 0.000116666666667 -0.008859375 0.547619
88 1 -0.034846875 0.000116666666667 -0.007678125 0.45098
89 1 -0.034846875 0.000116666666667 -0.006496875 0.253561
90 1 -0.034846875 0.000116666666667 -0.005315625 0.349003
91 1 -0.034846875 0.000116666666667 -0.004134375 0.45584
92 1 -0.034846875 0.000116666666667 -0.002953125 0.5
93 1 -0.034846875 0.000116666666667 -0.001771875 0.38604
94 1 -0.034846875 0.000116666666667 -0.000590625 0.576068
95 1 -0.034846875 0.000116666666667 0.000590625 0.528965
96 1 -0.034846875 0.000116666666667 0.001771875 0.441595
97 1 -0.034846875 0.000116666666667 0.002953125 0.38604
98 1 -0.034846875 0.000116666666667 0.004134375 0.139601
99 1 -0.034846875 0.000116666666667 0.005315625 0.11396
100 1 -0.034846875 0.000116666666667 0.006496875 0.218661
101 1 -0.034846875 0.000116666666667 0.007678125 0.0555557
102 1 -0.034846875 0.000116666666667 0.008859375 0.295238
103 1 -0.034846875 0.000116666666667 0.010040625 0.350427
104 1 -0.034846875 0.000116666666667 0.011221875 0.242857
105 1 -0.033665625 -0.00261666666667 -0.013584375 0.17646
106 1 -0.033665625 -0.00261666666667 -0.012403125 0.305739
107 1 -0.033665625 -0.00261666666667 -0.011221875 0.0555765
108 1 -0.033665625 -0.00261666666667 -0.010040625 0.347578
109 1 -0.033665625 -0.00261666666667 -0.008859375 0.459401
110 1 -0.033665625 -0.00261666666667 -0.007678125 0.404558
111 1 -0.033665625 -0.00261666666667 -0.006496875 0.486111
112 1 -0.033665625 -0.00261666666667 -0.005315625 0.551282
113 1 -0.033665625 -0.00261666666667 -0.004134375 0.553419
114 1 -0.033665625 -0.00261666666667 -0.002953125 0.54416
115 1 -0.033665625 -0.00261666666667 -0.001771875 0.423077
116 1 -0.033665625 -0.00261666666667 -0.000590625 0.713675
117 1 -0.033665625 -0.00261666666667 0.000590625 0.599893
118 1 -0.033665625 -0.00261666666667 0.001771875 0.519943
119 1 -0.033665625 -0.00261666666667 0.002953125 0.589744
120 1 -0.033665625 -0.00261666666667 0.004134375 0.380342
121 1 -0.033665625 -0.00261666666667 0.005315625 0.2151
122 1 -0.033665625 -0.00261666666667 0.006496875 0.331552
123 1 -0.033665625 -0.00261666666667 0.007678125 0.126781
124 1 -0.033665625 -0.00261666666667 0.008859375 0.380342
125 1 -0.033665625 -0.00261666666667 0.010040625 0.358262
126 1 -0.033665625 -0.00261666666667 0.011221875 0.160466
127 1 -0.033665625 -0.00261666666667 0.012403125 0.202584
128 1 -0.033665625 -0.00261666666667 0.013584375 0.102277
129 1 -0.033665625 -0.00125 -0.013584375 0.17646
130 1 -0.033665625 -0.00125 -0.012403125 0.305739
131 1 -0.033665625 -0.00125 -0.011221875 0.0555765
132 1 -0.033665625 -0.00125 -0.010040625 0.347578
133 1 -0.033665625 -0.00125 -0.008859375 0.459401
134 1 -0.033665625 -0.00125 -0.007678125 0.404558
135 1 -0.033665625 -0.00125 -0.006496875 0.486111
136 1 -0.033665625 -0.00125 -0.005315625 0.551282
137 1 -0.033665625 -0.00125 -0.004134375 0.553419
138 1 -0.033665625 -0.00125 -0.002953125 0.54416
139 1 -0.033665625 -0.00125 -0.001771875 0.423077
140 1 -0.033665625 -0.00125 -0.000590625 0.713675
141 1 -0.033665625 -0.00125 0.000590625 0.599893
142 1 -0.033665625 -0.00125 0.001771875 0.519943
143 1 -0.033665625 -0.00125 0.002953125 0.589744
144 1 -0.033665625 -0.00125 0.004134375 0.380342
145 1 -0.033665625 -0.00125 0.005315625 0.2151
146 1 -0.033665625 -0.00125 0.006496875 0.331552
147 1 -0.033665625 -0.00125 0.007678125 0.126781
148 1 -0.033665625 -0.00125 0.008859375 0.380342
149 1 -0.033665625 -0.00125 0.010040625 0.358262
150 1 -0.033665625 -0.00125 0.011221875 0.160466
151 1 -0.033665625 -0.00125 0.012403125 0.202584
152 1 -0.033665625 -0.00125 0.013584375 0.102277
153 1 -0.033665625 0.000116666666667 -0.013584375 0.17646
154 1 -0.033665625 0.000116666666667 -0.012403125 0.305739
155 1 -0.033665625 0.000116666666667 -0.011221875 0.0555765
156 1 -0.033665625 0.000116666666667 -0.010040625 0.347578
157 1 -0.033665625 0.000116666666667 -0.008859375 0.459401
158 1 -0.033665625 0.000116666666667 -0.007678125 0.404558
159 1 -0.033665625 0.000116666666667 -0.006496875 0.486111
160 1 -0.033665625 0.000116666666667 -0.005315625 0.551282
161 1 -0.033665625 0.000116666666667 -0.004134375 0.553419
162 1 -0.033665625 0.000116666666667 -0.002953125 0.54416
163 1 -0.033665625 0.000116666666667 -0.001771875 0.423077
164 1 -0.033665625 0.000116666666667 -0.000590625 0.713675
165 1 -0.033665625 0.000116666666667 0.000590625 0.599893
166 1 -0.033665625 0.000116666666667 0.001771875 0.519943
167 1 -0.033665625 0.000116666666667 0.002953125 0.589744
168 1 -0.033665625 0.000116666666667 0.004134375 0.380342
169 1 -0.033665625 0.000116666666667 0.005315625 0.2151
170 1 -0.033665625 0.000116666666667 0.006496875 0.331552
171 1 -0.033665625 0.000116666666667 0.007678125 0.126781
172 1 -0.033665625 0.000116666666667 0.008859375 0.380342
173 1 -0.033665625 0.000116666666667 0.010040625 0.358262
174 1 -0.033665625 0.000116666666667 0.011221875 0.160466
175 1 -0.033665625 0.000116666666667 0.012403125 0.202584
176 1 -0.033665625 0.000116666666667 0.013584375 0.102277
177 1 -0.032484375 -0.00261666666667 -0.018309375 0.304762
178 1 -0.032484375 -0.00261666666667 -0.017128125 0.180952
179 1 -0.032484375 -0.00261666666667 -0.015946875 0.557189
180 1 -0.032484375 -0.00261666666667 -0.014765625 0.323362
181 1 -0.032484375 -0.00261666666667 -0.013584375 0.196581
182 1 -0.032484375 -0.00261666666667 -0.012403125 0.34188
183 1 -0.032484375 -0.00261666666667 -0.011221875 0.132479
184 1 -0.032484375 -0.00261666666667 -0.010040625 0.38604
185 1 -0.032484375 -0.00261666666667 -0.008859375 0.621083
186 1 -0.032484375 -0.00261666666667 -0.007678125 0.695157
187 1 -0.032484375 -0.00261666666667 -0.006496875 0.576923
188 1 -0.032484375 -0.00261666666667 -0.005315625 0.72792
189 1 -0.032484375 -0.00261666666667 -0.004134375 0.639601
190 1 -0.032484375 -0.00261666666667 -0.002953125 0.507122
191 1 -0.032484375 -0.00261666666667 -0.001771875 0.437322
192 1 -0.032484375 -0.00261666666667 -0.000590625 0.714744
193 1 -0.032484375 -0.00261666666667 0.000590625 0.645299
194 1 -0.032484375 -0.00261666666667 0.001771875 0.437322
195 1 -0.032484375 -0.00261666666667 0.002953125 0.518519
196 1 -0.032484375 -0.00261666666667 0.004134375 0.411681
197 1 -0.032484375 -0.00261666666667 0.005315625 0.22792
198 1 -0.032484375 -0.00261666666667 0.006496875 0.424501
199 1 -0.032484375 -0.00261666666667 0.007678125 0.304843
200 1 -0.032484375 -0.00261666666667 0.008859375 0.735043
201 1 -0.032484375 -0.00261666666667 0.010040625 0.378917
202 1 -0.032484375 -0.00261666666667 0.011221875 0.132479
203 1 -0.032484375 -0.00261666666667 0.012403125 0.297721
204 1 -0.032484375 -0.00261666666667 0.013584375 0.621083
205 1 -0.032484375 -0.00261666666667 0.014765625 0.507122
206 1 -0.032484375 -0.00261666666667 0.015946875 0.339869
207 1 -0.032484375 -0.00261666666667 0.017128125 0.180952
208 1 -0.032484375 -0.00261666666667 0.018309375 0.17619
209 1 -0.032484375 -0.00125 -0.018309375 0.304762
210 1 -0.032484375 -0.00125 -0.017128125 0.180952
211 1 -0.032484375 -0.00125 -0.015946875 0.557189
212 1 -0.032484375 -0.00125 -0.014765625 0.323362
213 1 -0.032484375 -0.00125 -0.013584375 0.196581
214 1 -0.032484375 -0.00125 -0.012403125 0.34188
215 1 -0.032484375 -0.00125 -0.011221875 0.132479
216 1 -0.032484375 -0.00125 -0.010040625 0.38604
217 1 -0.032484375 -0.00125 -0.008859375 0.621083
218 1 -0.032484375 -0.00125 -0.007678125 0.695157
219 1 -0.032484375 -0.00125 -0.006496875 0.576923
220 1 -0.032484375 -0.00125 -0.005315625 0.72792
221 1 -0.032484375 -0.00125 -0.004134375 0.639601
222 1 -0.032484375 -0.00125 -0.002953125 0.507122
223 1 -0.032484375 -0.00125 -0.001771875 0.437322
224 1 -0.032484375 -0.00125 -0.000590625 0.714744
225 1 -0.032484375 -0.00125 0.000590625 0.645299
226 1 -0.032484375 -0.00125 0.001771875 0.437322
227 1 -0.032484375 -0.00125 0.002953125 0.518519
228 1 -0.032484375 -0.00125 0.004134375 0.411681
229 1 -0.032484375 -0.00125 0.005315625 0.22792
230 1 -0.032484375 -0.00125 0.006496875 0.424501
231 1 -0.032484375 -0.00125 0.007678125 0.304843
232 1 -0.032484375 -0.00125 0.008859375 0.735043
233 1 -0.032484375 -0.00125 0.010040625 0.378917
234 1 -0.032484375 -0.00125 0.011221875 0.132479
235 1 -0.032484375 -0.00125 0.012403125 0.297721
236 1 -0.032484375 -0.00125 0.013584375 0.621083
237 1 -0.032484375 -0.00125 0.014765625 0.507122
238 1 -0.032484375 -0.00125 0.015946875 0.339869
239 1 -0.032484375 -0.00125 0.017128125 0.180952
240 1 -0.032484375 -0.00125 0.018309375 0.17619
241 1 -0.032484375 0.000116666666667 -0.018309375 0.304762
242 1 -0.032484375 0.000116666666667 -0.017128125 0.180952
243 1 -0.032484375 0.000116666666667 -0.015946875 0.557189
244 1 -0.032484375 0.000116666666667 -0.014765625 0.323362
245 1 -0.032484375 0.000116666666667 -0.013584375 0.196581
246 1 -0.032484375 0.000116666666667 -0.012403125 0.34188
247 1 -0.032484375 0.000116666666667 -0.011221875 0.132479
248 1 -0.032484375 0.000116666666667 -0.010040625 0.38604
249 1 -0.032484375 0.000116666666667 -0.008859375 0.621083
250 1 -0.032484375 0.000116666666667 -0.007678125 0.695157
251 1 -0.032484375 0.000116666666667 -0.006496875 0.576923
252 1 -0.032484375 0.000116666666667 -0.005315625 0.72792
253 1 -0.032484375 0.000116666666667 -0.004134375 0.639601
254 1 -0.032484375 0.000116666666667 -0.002953125 0.507122
255 1 -0.032484375 0.000116666666667 -0.001771875 0.437322
256 1 -0.032484375 0.000116666666667 -0.000590625 0.714744
257 1 -0.032484375 0.000116666666667 0.000590625 0.645299
258 1 -0.032484375 0.000116666666667 0.001771875 0.437322
259 1 -0.032484375 0.000116666666667 0.002953125 0.518519
260 1 -0.032484375 0.000116666666667 0.004134375 0.411681
261 1 -0.032484375 0.000116666666667 0.005315625 0.22792
262 1 -0.032484375 0.000116666666667 0.006496875 0.424501
263 1 -0.032484375 0.000116666666667 0.007678125 0.304843
264 1 -0.032484375 0.000116666666667 0.008859375 0.735043
265 1 -0.032484375 0.000116666666667 0.010040625 0.378917
266 1 -0.032484375 0.000116666666667 0.011221875 0.132479
267 1 -0.032484375 0.000116666666667 0.012403125 0.297721
268 1 -0.032484375 0.000116666666667 0.013584375 0.621083
269 1 -0.032484375 0.000116666666667 0.014765625 0.507122
270 1 -0.032484375 0.000116666666667 0.015946875 0.339869
271 1 -0.032484375 0.000116666666667 0.017128125 0.180952
272 1 -0.032484375 0.000116666666667 0.018309375 0.17619
273 1 -0.031303125 -0.00261666666667 -0.019490625 0.12381
274 1 -0.031303125 -0.00261666666667 -0.018309375 0.312091
275 1 -0.031303125 -0.00261666666667 -0.017128125 0.492878
276 1 -0.031303125 -0.00261666666667 -0.015946875 0.360399
277 1 -0.031303125 -0.00261666666667 -0.014765625 0.437322
278 1 -0.031303125 -0.00261666666667 -0.013584375 0.354701
279 1 -0.031303125 -0.00261666666667 -0.012403125 0.367521
280 1 -0.031303125 -0.00261666666667 -0.011221875 0.183761
281 1 -0.031303125 -0.00261666666667 -0.010040625 0.54416
282 1 -0.031303125 -0.00261666666667 -0.008859375 0.893162
283 1 -0.031303125 -0.00261666666667 -0.007678125 0.77208
284 1 -0.031303125 -0.00261666666667 -0.006496875 0.753561
285 1 -0.031303125 -0.00261666666667 -0.005315625 0.764957
286 1 -0.031303125 -0.00261666666667 -0.004134375 0.65812
287 1 -0.031303125 -0.00261666666667 -0.002953125 0.621083
288 1 -0.031303125 -0.00261666666667 -0.001771875 0.679487
289 1 -0.031303125 -0.00261666666667 -0.000590625 0.651709
290 1 -0.031303125 -0.00261666666667 0.000590625 0.57265
291 1 -0.031303125 -0.00261666666667 0.001771875 0.45584
292 1 -0.031303125 -0.00261666666667 0.002953125 0.650997
293 1 -0.031303125 -0.00261666666667 0.004134375 0.606838
294 1 -0.031303125 -0.00261666666667 0.005315625 0.5
295 1 -0.031303125 -0.00261666666667 0.006496875 0.626781
296 1 -0.031303125 -0.00261666666667 0.007678125 0.639601
297 1 -0.031303125 -0.00261666666667 0.008859375 0.72792
298 1 -0.031303125 -0.00261666666667 0.010040625 0.525641
299 1 -0.031303125 -0.00261666666667 0.011221875 0.253561
300 1 -0.031303125 -0.00261666666667 0.012403125 0.437322
301 1 -0.031303125 -0.00261666666667 0.013584375 0.787037
302 1 -0.031303125 -0.00261666666667 0.014765625 0.621083
303 1 -0.031303125 -0.00261666666667 0.015946875 0.367521
304 1 -0.031303125 -0.00261666666667 0.017128125 0.27208
305 1 -0.031303125 -0.00261666666667 0.018309375 0.379085
306 1 -0.031303125 -0.00261666666667 0.019490625 0.509524
307 1 -0.031303125 -0.00125 -0.019490625 0.12381
308 1 -0.031303125 -0.00125 -0.018309375 0.312091
309 1 -0.031303125 -0.00125 -0.017128125 0.492878
310 1 -0.031303125 -0.00125 -0.015946875 0.360399
311 1 -0.031303125 -0.00125 -0.014765625 0.437322
312 1 -0.031303125 -0.00125 -0.013584375 0.354701
313 1 -0.031303125 -0.00125 -0.012403125 0.367521
314 1 -0.031303125 -0.00125 -0.011221875 0.183761
315 1 -0.031303125 -0.00125 -0.010040625 0.54416
316 1 -0.031303125 -0.00125 -0.008859375 0.893162
317 1 -0.031303125 -0.00125 -0.007678125 0.77208
318 1 -0.031303125 -0.00125 -0.006496875 0.753561
319 1 -0.031303125 -0.00125 -0.005315625 0.764957
320 1 -0.031303125 -0.00125 -0.004134375 0.65812
321 1 -0.031303125 -0.00125 -0.002953125 0.621083
322 1 -0.031303125 -0.00125 -0.001771875 0.679487
323 1 -0.031303125 -0.00125 -0.000590625 0.651709
324 1 -0.031303125 -0.00125 0.000590625 0.57265
325 1 -0.031303125 -0.00125 0.001771875 0.45584
326 1 -0.031303125 -0.00125 0.002953125 0.650997
327 1 -0.031303125 -0.00125 0.004134375 0.606838
328 1 -0.031303125 -0.00125 0.005315625 0.5
329 1 -0.031303125 -0.00125 0.006496875 0.626781
330 1 -0.031303125 -0.00125 0.007678125 0.639601
331 1 -0.031303125 -0.00125 0.008859375 0.72792
332 1 -0.031303125 -0.00125 0.010040625 0.525641
333 1 -0.031303125 -0.00125 0.011221875 0.253561
334 1 -0.031303125 -0.00125 0.012403125 0.437322
335 1 -0.031303125 -0.00125 0.013584375 0.787037
336 1 -0.031303125 -0.00125 0.014765625 0.621083
337 1 -0.031303125 -0.00125 0.015946875 0.367521
338 1 -0.031303125 -0.00125 0.017128125 0.27208
339 1 -0.031303125 -0.00125 0.018309375 0.379085
340 1 -0.031303125 -0.00125 0.019490625 0.509524
341 1 -0.031303125 0.000116666666667 -0.019490625 0.12381
342 1 -0.031303125 0.000116666666667 -0.018309375 0.312091
343 1 -0.031303125 0.000116666666667 -0.017128125 0.492878
344 1 -0.031303125 0.000116666666667 -0.015946875 0.360399
345 1 -0.031303125 0.000116666666667 -0.014765625 0.437322
346 1 -0.031303125 0.000116666666667 -0.013584375 0.354701
347 1 -0.031303125 0.000116666666667 -0.012403125 0.367521
348 1 -0.031303125 0.000116666666667 -0.011221875 0.183761
349 1 -0.031303125 0.000116666666667 -0.010040625 0.54416
350 1 -0.031303125 0.000116666666667 -0.008859375 0.893162
351 1 -0.031303125 0.000116666666667 -0.007678125 0.77208
352 1 -0.031303125 0.000116666666667 -0.006496875 0.753561
353 1 -0.031303125 0.000116666666667 -0.005315625 0.764957
354 1 -0.031303125 0.000116666666667 -0.004134375 0.65812
355 1 -0.031303125 0.000116666666667 -0.002953125 0.621083
356 1 -0.031303125 0.000116666666667 -0.001771875 0.679487
357 1 -0.031303125 0.000116666666667 -0.000590625 0.651709
358 1 -0.031303125 0.000116666666667 0.000590625 0.57265
359 1 -0.031303125 0.000116666666667 0.001771875 0.45584
360 1 -0.031303125 0.000116666666667 0.002953125 0.650997
361 1 -0.031303125 0.000116666666667 0.004134375 0.606838
362 1 -0.031303125 0.000116666666667 0.005315625 0.5
363 1 -0.031303125 0.000116666666667 0.006496875 0.626781
364 1 -0.031303125 0.000116666666667 0.007678125 0.639601
365 1 -0.031303125 0.000116666666667 0.008859375 0.72792
366 1 -0.031303125 0.000116666666667 0.010040625 0.525641
367 1 -0.031303125 0.000116666666667 0.011221875 0.253561
368 1 -0.031303125 0.000116666666667 0.012403125 0.437322
369 1 -0.031303125 0.000116666666667 0.013584375 0.787037
370 1 -0.031303125 0.000116666666667 0.014765625 0.621083
371 1 -0.031303125 0.000116666666667 0.015946875 0.367521
372 1 -0.031303125 0.000116666666667 0.017128125 0.27208
373 1 -0.031303125 0.000116666666667 0.018309375 0.379085
374 1 -0.031303125 0.000116666666667 0.019490625 0.509524
375 1 -0.030121875 -0.00261666666667 -0.020671875 0.0694444
376 1 -0.030121875 -0.00261666666667 -0.019490625 0.0698006
377 1 -0.030121875 -0.00261666666667 -0.018309375 0.411681
378 1 -0.030121875 -0.00261666666667 -0.017128125 0.871795
379 1 -0.030121875 -0.00261666666667 -0.015946875 0.739316
380 1 -0.030121875 -0.00261666666667 -0.014765625 0.676638
381 1 -0.030121875 -0.00261666666667 -0.013584375 0.630342
382 1 -0.030121875 -0.00261666666667 -0.012403125 0.470086
383 1 -0.030121875 -0.00261666666667 -0.011221875 0.558404
384 1 -0.030121875 -0.00261666666667 -0.010040625 0.739316
385 1 -0.030121875 -0.00261666666667 -0.008859375 0.811966
386 1 -0.030121875 -0.00261666666667 -0.007678125 0.816239
387 1 -0.030121875 -0.00261666666667 -0.006496875 0.817664
388 1 -0.030121875 -0.00261666666667 -0.005315625 0.720798
389 1 -0.030121875 -0.00261666666667 -0.004134375 0.779202
390 1 -0.030121875 -0.00261666666667 -0.002953125 0.753561
391 1 -0.030121875 -0.00261666666667 -0.001771875 0.72792
392 1 -0.030121875 -0.00261666666667 -0.000590625 0.569801
393 1 -0.030121875 -0.00261666666667 0.000590625 0.567664
394 1 -0.030121875 -0.00261666666667 0.001771875 0.576923
395 1 -0.030121875 -0.00261666666667 0.002953125 0.672365
396 1 -0.030121875 -0.00261666666667 0.004134375 0.584046
397 1 -0.030121875 -0.00261666666667 0.005315625 0.588319
398 1 -0.030121875 -0.00261666666667 0.006496875 0.676638
399 1 -0.030121875 -0.00261666666667 0.007678125 0.695157
400 1 -0.030121875 -0.00261666666667 0.008859375 0.683761
401 1 -0.030121875 -0.00261666666667 0.010040625 0.639601
402 1 -0.030121875 -0.00261666666667 0.011221875 0.507122
403 1 -0.030121875 -0.00261666666667 0.012403125 0.588319
404 1 -0.030121875 -0.00261666666667 0.013584375 0.597579
405 1 -0.030121875 -0.00261666666667 0.014765625 0.551282
406 1 -0.030121875 -0.00261666666667 0.015946875 0.418803
407 1 -0.030121875 -0.00261666666667 0.017128125 0.316239
408 1 -0.030121875 -0.00261666666667 0.018309375 0.448718
409 1 -0.030121875 -0.00261666666667 0.019490625 0.525641
410 1 -0.030121875 -0.00261666666667 0.020671875 0.159796
411 1 -0.030121875 -0.00125 -0.020671875 0.0694444
412 1 -0.030121875 -0.00125 -0.019490625 0.0698006
413 1 -0.030121875 -0.00125 -0.018309375 0.411681
414 1 -0.030121875 -0.00125 -0.017128125 0.871795
415 1 -0.030121875 -0.00125 -0.015946875 0.739316
416 1 -0.030121875 -0.00125 -0.014765625 0.676638
417 1 -0.030121875 -0.00125 -0.013584375 0.630342
418 1 -0.030121875 -0.00125 -0.012403125 0.470086
419 1 -0.030121875 -0.00125 -0.011221875 0.558404
420 1 -0.030121875 -0.00125 -0.010040625 0.739316
421 1 -0.030121875 -0.00125 -0.008859375 0.811966
422 1 -0.030121875 -0.00125 -0.007678125 0.816239
423 1 -0.030121875 -0.00125 -0.006496875 0.817664
424 1 -0.030121875 -0.00125 -0.005315625 0.720798
425 1 -0.030121875 -0.00125 -0.004134375 0.779202
426 1 -0.030121875 -0.00125 -0.002953125 0.753561
427 1 -0.030121875 -0.00125 -0.001771875 0.72792
428 1 -0.030121875 -0.00125 -0.000590625 0.569801
429 1 -0.030121875 -0.00125 0.000590625 0.567664
430 1 -0.030121875 -0.00125 0.001771875 0.576923
431 1 -0.030121875 -0.00125 0.002953125 0.672365
432 1 -0.030121875 -0.00125 0.004134375 0.584046
433 1 -0.030121875 -0.00125 0.005315625 0.588319
434 1 -0.030121875 -0.00125 0.006496875 0.676638
435 1 -0.030121875 -0.00125 0.007678125 0.695157
436 1 -0.030121875 -0.00125 0.008859375 0.683761
437 1 -0.030121875 -0.00125 0.010040625 0.639601
438 1 -0.030121875 -0.00125 0.011221875 0.507122
439 1 -0.030121875 -0.00125 0.012403125 0.588319
440 1 -0.030121875 -0.00125 0.013584375 0.597579
441 1 -0.030121875 -0.00125 0.014765625 0.551282
442 1 -0.030121875 -0.00125 0.015946875 0.418803
443 1 -0.030121875 -0.00125 0.017128125 0.316239
444 1 -0.030121875 -0.00125 0.018309375 0.448718
445 1 -0.030121875 -0.00125 0.019490625 0.525641
446 1 -0.030121875 -0.00125 0.020671875 0.159796
447 1 -0.030121875 0.000116666666667 -0.020671875 0.0694444
448 1 -0.030121875 0.000116666666667 -0.019490625 0.0698006
449 1 -0.030121875 0.000116666666667 -0.018309375 0.411681
450 1 -0.030121875 0.000116666666667 -0.017128125 0.871795
451 1 -0.030121875 0.000116666666667 -0.015946875 0.739316
452 1 -0.030121875 0.000116666666667 -0.014765625 0.676638
453 1 -0.030121875 0.000116666666667 -0.013584375 0.630342
454 1 -0.030121875 0.000116666666667 -0.012403125 0.470086
455 1 -0.030121875 0.000116666666667 -0.011221875 0.558404
456 1 -0.030121875 0.000116666666667 -0.010040625 0.739316
457 1 -0.030121875 0.000116666666667 -0.008859375 0.811966
458 1 -0.030121875 0.000116666666667 -0.007678125 0.816239
459 1 -0.030121875 0.000116666666667 -0.006496875 0.817664
460 1 -0.030121875 0.000116666666667 -0.005315625 0.720798
461 1 -0.030121875 0.000116666666667 -0.004134375 0.779202
462 1 -0.030121875 0.000116666666667 -0.002953125 0.753561
463 1 -0.030121875 0.000116666666667 -0.001771875 0.72792
464 1 -0.030121875 0.000116666666667 -0.000590625 0.569801
465 1 -0.030121875 0.000116666666667 0.000590625 0.567664
466 1 -0.030121875 0.000116666666667 0.001771875 0.576923
467 1 -0.030121875 0.000116666666667 0.002953125 0.672365
468 1 -0.030121875 0.000116666666667 0.004134375 0.584046
469 1 -0.030121875 0.000116666666667 0.005315625 0.588319
470 1 -0.030121875 0.000116666666667 0.006496875 0.676638
471 1 -0.030121875 0.000116666666667 0.007678125 0.695157
472 1 -0.030121875 0.000116666666667 0.008859375 0.683761
473 1 -0.030121875 0.000116666666667 0.010040625 0.639601
474 1 -0.030121875 0.000116666666667 0.011221875 0.507122
475 1 -0.030121875 0.000116666666667 0.012403125 0.588319
476 1 -0.030121875 0.000116666666667 0.013584375 0.597579
477 1 -0.030121875 0.000116666666667 0.014765625 0.551282
478 1 -0.030121875 0.000116666666667 0.015946875 0.418803
479 1 -0.030121875 0.000116666666667 0.017128125 0.316239
480 1 -0.030121875 0.000116666666667 0.018309375 0.448718
481 1 -0.030121875 0.000116666666667 0.019490625 0.525641
482 1 -0.030121875 0.000116666666667 0.020671875 0.159796
483 1 -0.028940625 -0.00261666666667 -0.021853125 0.382576
484 1 -0.028940625 -0.00261666666667 -0.020671875 0.207642
485 1 -0.028940625 -0.00261666666667 -0.019490625 0.260684
486 1 -0.028940625 -0.00261666666667 -0.018309375 0.45584
487 1 -0.028940625 -0.00261666666667 -0.017128125 0.61396
488 1 -0.028940625 -0.00261666666667 -0.015946875 0.72792
489 1 -0.028940625 -0.00261666666667 -0.014765625 0.569801
490 1 -0.028940625 -0.00261666666667 -0.013584375 0.553419
491 1 -0.028940625 -0.00261666666667 -0.012403125 0.621083
492 1 -0.028940625 -0.00261666666667 -0.011221875 0.474359
493 1 -0.028940625 -0.00261666666667 -0.010040625 0.558404
494 1 -0.028940625 -0.00261666666667 -0.008859375 0.709402
495 1 -0.028940625 -0.00261666666667 -0.007678125 0.779202
496 1 -0.028940625 -0.00261666666667 -0.006496875 0.700143
497 1 -0.028940625 -0.00261666666667 -0.005315625 0.665242
498 1 -0.028940625 -0.00261666666667 -0.004134375 0.797721
499 1 -0.028940625 -0.00261666666667 -0.002953125 0.72792
500 1 -0.028940625 -0.00261666666667 -0.001771875 0.760684
501 1 -0.028940625 -0.00261666666667 -0.000590625 0.570513
502 1 -0.028940625 -0.00261666666667 0.000590625 0.567522
503 1 -0.028940625 -0.00261666666667 0.001771875 0.609687
504 1 -0.028940625 -0.00261666666667 0.002953125 0.753561
505 1 -0.028940625 -0.00261666666667 0.004134375 0.804843
506 1 -0.028940625 -0.00261666666667 0.005315625 0.735043
507 1 -0.028940625 -0.00261666666667 0.006496875 0.674502
508 1 -0.028940625 -0.00261666666667 0.007678125 0.481481
509 1 -0.028940625 -0.00261666666667 0.008859375 0.576923
510 1 -0.028940625 -0.00261666666667 0.010040625 0.646724
511 1 -0.028940625 -0.00261666666667 0.011221875 0.569801
512 1 -0.028940625 -0.00261666666667 0.012403125 0.746439
513 1 -0.028940625 -0.00261666666667 0.013584375 0.643162
514 1 -0.028940625 -0.00261666666667 0.014765625 0.462963
515 1 -0.028940625 -0.00261666666667 0.015946875 0.297721
516 1 -0.028940625 -0.00261666666667 0.017128125 0.190883
517 1 -0.028940625 -0.00261666666667 0.018309375 0.418803
518 1 -0.028940625 -0.00261666666667 0.019490625 0.518519
519 1 -0.028940625 -0.00261666666667 0.020671875 0.151542
520 1 -0.028940625 -0.00261666666667 0.021853125 0.143939
521 1 -0.028940625 -0.00125 -0.021853125 0.382576
522 1 -0.028940625 -0.00125 -0.020671875 0.207642
523 1 -0.028940625 -0.00125 -0.019490625 0.260684
524 1 -0.028940625 -0.00125 -0.018309375 0.45584
525 1 -0.028940625 -0.00125 -0.017128125 0.61396
526 1 -0.028940625 -0.00125 -0.015946875 0.72792
527 1 -0.028940625 -0.00125 -0.014765625 0.569801
528 1 -0.028940625 -0.00125 -0.013584375 0.553419
529 1 -0.028940625 -0.00125 -0.012403125 0.621083
530 1 -0.028940625 -0.00125 -0.011221875 0.474359
531 1 -0.028940625 -0.00125 -0.010040625 0.558404
532 1 -0.028940625 -0.00125 -0.008859375 0.709402
533 1 -0.028940625 -0.00125 -0.007678125 0.779202
534 1 -0.028940625 -0.00125 -0.006496875 0.700143
535 1 -0.028940625 -0.00125 -0.005315625 0.665242
536 1 -0.028940625 -0.00125 -0.004134375 0.797721
537 1 -0.028940625 -0.00125 -0.002953125 0.72792
538 1 -0.028940625 -0.00125 -0.001771875 0.760684
539 1 -0.028940625 -0.00125 -0.000590625 0.570513