ITEM: TIMESTEP
0
ITEM: NUMBER OF ATOMS
9240
ITEM: BOX BOUNDS ss ss ss
-3.7007399999999996e-02 3.7007399999999996e-02
-2.0002499999999999e-03 2.5000000000000004e-07
-3.7007399999999996e-02 3.7007399999999996e-02
ITEM: ATOMS id type x y z c_1
0 1 -0.037209375 -0.00261666666667 -0.000590625 0.361905
1 1 -0.037209375 -0.00125 -0.000590625 0.361905
2 1 -0.037209375 0.000116666666667 -0.000590625 0.361905
3 1 -0.036028125 -0.00261666666667 -0.007678125 0.196561
4 1 -0.036028125 -0.00261666666667 -0.006496875 0.074074
5 1 -0.036028125 -0.00261666666667 -0.005315625 0.099715
6 1 -0.036028125 -0.00261666666667 -0.004134375 0.136752
7 1 -0.036028125 -0.00261666666667 -0.002953125 0.324786
8 1 -0.036028125 -0.00261666666667 -0.001771875 0.262108
9 1 -0.036028125 -0.00261666666667 -0.000590625 0.194237
10 1 -0.036028125 -0.00261666666667 0.000590625 0.690476
11 1 -0.036028125 -0.00261666666667 0.001771875 0.262108
12 1 -0.036028125 -0.00261666666667 0.002953125 0.0001
13 1 -0.036028125 -0.00261666666667 0.004134375 0.324786
14 1 -0.036028125 -0.00261666666667 0.005315625 0.512821
15 1 -0.036028125 -0.00261666666667 0.006496875 0.155271
16 1 -0.036028125 -0.00261666666667 0.007678125 0.17619
17 1 -0.036028125 -0.00125 -0.007678125 0.196561
18 1 -0.036028125 -0.00125 -0.006496875 0.074074
19 1 -0.036028125 -0.00125 -0.005315625 0.099715
20 1 -0.036028125 -0.00125 -0.004134375 0.136752
21 1 -0.036028125 -0.00125 -0.002953125 0.324786
22 1 -0.036028125 -0.00125 -0.001771875 0.262108
23 1 -0.036028125 -0.00125 -0.000590625 0.194237
24 1 -0.036028125 -0.00125 0.000590625 0.690476
25 1 -0.036028125 -0.00125 0.001771875 0.262108
26 1 -0.036028125 -0.00125 0.002953125 0.0001
27 1 -0.036028125 -0.00125 0.004134375 0.324786
28 1 -0.036028125 -0.00125 0.005315625 0.512821
29 1 -0.036028125 -0.00125 0.006496875 0.155271
30 1 -0.036028125 -0.00125 0.007678125 0.17619
31 1 -0.036028125 0.000116666666667 -0.007678125 0.196561
32 1 -0.036028125 0.000116666666667 -0.006496875 0.074074
33 1 -0.036028125 0.000116666666667 -0.005315625 0.099715
34 1 -0.036028125 0.000116666666667 -0.004134375 0.136752
35 1 -0.036028125 0.000116666666667 -0.002953125 0.324786
36 1 -0.036028125 0.000116666666667 -0.001771875 0.262108
37 1 -0.036028125 0.000116666666667 -0.000590625 0.194237
38 1 -0.036028125 0.000116666666667 0.000590625 0.690476
39 1 -0.036028125 0.000116666666667 0.001771875 0.262108
40 1 -0.036028125 0.000116666666667 0.002953125 0.0001
41 1 -0.036028125 0.000116666666667 0.004134375 0.324786
42 1 -0.036028125 0.000116666666667 0.005315625 0.512821
43 1 -0.036028125 0.000116666666667 0.006496875 0.155271
44 1 -0.036028125 0.000116666666667 0.007678125 0.17619
45 1 -0.034846875 -0.00261666666667 -0.011221875 0.242857
46 1 -0.034846875 -0.00261666666667 -0.010040625 0.225071
47 1 -0.034846875 -0.00261666666667 -0.008859375 0.442857
48 1 -0.034846875 -0.00261666666667 -0.007678125 0.22725
49 1 -0.034846875 -0.00261666666667 -0.006496875 0.172365
50 1 -0.034846875 -0.00261666666667 -0.005315625 0.22792
51 1 -0.034846875 -0.00261666666667 -0.004134375 0.297721
52 1 -0.034846875 -0.00261666666667 -0.002953125 0.190883
53 1 -0.034846875 -0.00261666666667 -0.001771875 0.15812
54 1 -0.034846875 -0.00261666666667 -0.000590625 0.487179
55 1 -0.034846875 -0.00261666666667 0.000590625 0.576923
56 1 -0.034846875 -0.00261666666667 0.001771875 0.323361
57 1 -0.034846875 -0.00261666666667 0.002953125 0.218661
58 1 -0.034846875 -0.00261666666667 0.004134375 0.38604
59 1 -0.034846875 -0.00261666666667 0.005315625 0.483618
60 1 -0.034846875 -0.00261666666667 0.006496875 0.20406
61 1 -0.034846875 -0.00261666666667 0.007678125 0.381808
62 1 -0.034846875 -0.00261666666667 0.008859375 0.242145
63 1 -0.034846875 -0.00261666666667 0.010040625 0.0605413
64 1 -0.034846875 -0.00261666666667 0.011221875 0.289893
65 1 -0.034846875 -0.00125 -0.011221875 0.242857
66 1 -0.034846875 -0.00125 -0.010040625 0.225071
67 1 -0.034846875 -0.00125 -0.008859375 0.442857
68 1 -0.034846875 -0.00125 -0.007678125 0.22725
69 1 -0.034846875 -0.00125 -0.006496875 0.172365
70 1 -0.034846875 -0.00125 -0.005315625 0.22792
71 1 -0.034846875 -0.00125 -0.004134375 0.297721
72 1 -0.034846875 -0.00125 -0.002953125 0.190883
73 1 -0.034846875 -0.00125 -0.001771875 0.15812
74 1 -0.034846875 -0.00125 -0.000590625 0.487179
75 1 -0.034846875 -0.00125 0.000590625 0.576923
76 1 -0.034846875 -0.00125 0.001771875 0.323361
77 1 -0.034846875 -0.00125 0.002953125 0.218661
78 1 -0.034846875 -0.00125 0.004134375 0.38604
79 1 -0.034846875 -0.00125 0.005315625 0.483618
80 1 -0.034846875 -0.00125 0.006496875 0.20406
81 1 -0.034846875 -0.00125 0.007678125 0.381808
82 1 -0.034846875 -0.00125 0.008859375 0.242145
83 1 -0.034846875 -0.00125 0.010040625 0.0605413
84 1 -0.034846875 -0.00125 0.011221875 0.289893
85 1 -0.034846875 0.000116666666667 -0.011221875 0.242857
86 1 -0.034846875 0.000116666666667 -0.010040625 0.225071
87 1 -0.034846875 0.000116666666667 -0.008859375 0.442857
88 1 -0.034846875 0.000116666666667 -0.007678125 0.22725
89 1 -0.034846875 0.000116666666667 -0.006496875 0.172365
90 1 -0.034846875 0.000116666666667 -0.005315625 0.22792
91 1 -0.034846875 0.000116666666667 -0.004134375 0.297721
92 1 -0.034846875 0.000116666666667 -0.002953125 0.190883
93 1 -0.034846875 0.000116666666667 -0.001771875 0.15812
94 1 -0.034846875 0.000116666666667 -0.000590625 0.487179
95 1 -0.034846875 0.000116666666667 0.000590625 0.576923
96 1 -0.034846875 0.000116666666667 0.001771875 0.323361
97 1 -0.034846875 0.000116666666667 0.002953125 0.218661
98 1 -0.034846875 0.000116666666667 0.004134375 0.38604
99 1 -0.034846875 0.000116666666667 0.005315625 0.483618
100 1 -0.034846875 0.000116666666667 0.006496875 0.20406
101 1 -0.034846875 0.000116666666667 0.007678125 0.381808
102 1 -0.034846875 0.000116666666667 0.008859375 0.242145
103 1 -0.034846875 0.000116666666667 0.010040625 0.0605413
104 1 -0.034846875 0.000116666666667 0.011221875 0.289893
105 1 -0.033665625 -0.00261666666667 -0.013584375 0.124392
106 1 -0.033665625 -0.00261666666667 -0.012403125 0.288441
107 1 -0.033665625 -0.00261666666667 -0.011221875 0.29263
108 1 -0.033665625 -0.00261666666667 -0.010040625 0.57906
109 1 -0.033665625 -0.00261666666667 -0.008859375 0.606125
110 1 -0.033665625 -0.00261666666667 -0.007678125 0.207459
111 1 -0.033665625 -0.00261666666667 -0.006496875 0.193529
112 1 -0.033665625 -0.00261666666667 -0.005315625 0.19302
113 1 -0.033665625 -0.00261666666667 -0.004134375 0.450143
114 1 -0.033665625 -0.00261666666667 -0.002953125 0.661681
115 1 -0.033665625 -0.00261666666667 -0.001771875 0.525641
116 1 -0.033665625 -0.00261666666667 -0.000590625 0.558405
117 1 -0.033665625 -0.00261666666667 0.000590625 0.34188
118 1 -0.033665625 -0.00261666666667 0.001771875 0.374644
119 1 -0.033665625 -0.00261666666667 0.002953125 0.430199
120 1 -0.033665625 -0.00261666666667 0.004134375 0.441595
121 1 -0.033665625 -0.00261666666667 0.005315625 0.54416
122 1 -0.033665625 -0.00261666666667 0.006496875 0.573362
123 1 -0.033665625 -0.00261666666667 0.007678125 0.650997
124 1 -0.033665625 -0.00261666666667 0.008859375 0.323362
125 1 -0.033665625 -0.00261666666667 0.010040625 0.425926
126 1 -0.033665625 -0.00261666666667 0.011221875 0.521368
127 1 -0.033665625 -0.00261666666667 0.012403125 0.558404
128 1 -0.033665625 -0.00261666666667 0.013584375 0.288126
129 1 -0.033665625 -0.00125 -0.013584375 0.124392
130 1 -0.033665625 -0.00125 -0.012403125 0.288441
131 1 -0.033665625 -0.00125 -0.011221875 0.29263
132 1 -0.033665625 -0.00125 -0.010040625 0.57906
133 1 -0.033665625 -0.00125 -0.008859375 0.606125
134 1 -0.033665625 -0.00125 -0.007678125 0.207459
135 1 -0.033665625 -0.00125 -0.006496875 0.193529
136 1 -0.033665625 -0.00125 -0.005315625 0.19302
137 1 -0.033665625 -0.00125 -0.004134375 0.450143
138 1 -0.033665625 -0.00125 -0.002953125 0.661681
139 1 -0.033665625 -0.00125 -0.001771875 0.525641
140 1 -0.033665625 -0.00125 -0.000590625 0.558405
141 1 -0.033665625 -0.00125 0.000590625 0.34188
142 1 -0.033665625 -0.00125 0.001771875 0.374644
143 1 -0.033665625 -0.00125 0.002953125 0.430199
144 1 -0.033665625 -0.00125 0.004134375 0.441595
145 1 -0.033665625 -0.00125 0.005315625 0.54416
146 1 -0.033665625 -0.00125 0.006496875 0.573362
147 1 -0.033665625 -0.00125 0.007678125 0.650997
148 1 -0.033665625 -0.00125 0.008859375 0.323362
149 1 -0.033665625 -0.00125 0.010040625 0.425926
150 1 -0.033665625 -0.00125 0.011221875 0.521368
151 1 -0.033665625 -0.00125 0.012403125 0.558404
152 1 -0.033665625 -0.00125 0.013584375 0.288126
153 1 -0.033665625 0.000116666666667 -0.013584375 0.124392
154 1 -0.033665625 0.000116666666667 -0.012403125 0.288441
155 1 -0.033665625 0.000116666666667 -0.011221875 0.29263
156 1 -0.033665625 0.000116666666667 -0.010040625 0.57906
157 1 -0.033665625 0.000116666666667 -0.008859375 0.606125
158 1 -0.033665625 0.000116666666667 -0.007678125 0.207459
159 1 -0.033665625 0.000116666666667 -0.006496875 0.193529
160 1 -0.033665625 0.000116666666667 -0.005315625 0.19302
161 1 -0.033665625 0.000116666666667 -0.004134375 0.450143
162 1 -0.033665625 0.000116666666667 -0.002953125 0.661681
163 1 -0.033665625 0.000116666666667 -0.001771875 0.525641
164 1 -0.033665625 0.000116666666667 -0.000590625 0.558405
165 1 -0.033665625 0.000116666666667 0.000590625 0.34188
166 1 -0.033665625 0.000116666666667 0.001771875 0.374644
167 1 -0.033665625 0.000116666666667 0.002953125 0.430199
168 1 -0.033665625 0.000116666666667 0.004134375 0.441595
169 1 -0.033665625 0.000116666666667 0.005315625 0.54416
170 1 -0.033665625 0.000116666666667 0.006496875 0.573362
171 1 -0.033665625 0.000116666666667 0.007678125 0.650997
172 1 -0.033665625 0.000116666666667 0.008859375 0.323362
173 1 -0.033665625 0.000116666666667 0.010040625 0.425926
174 1 -0.033665625 0.000116666666667 0.011221875 0.521368
175 1 -0.033665625 0.000116666666667 0.012403125 0.558404
176 1 -0.033665625 0.000116666666667 0.013584375 0.288126
177 1 -0.032484375 -0.00261666666667 -0.018309375 0.352381
178 1 -0.032484375 -0.00261666666667 -0.017128125 0.409524
179 1 -0.032484375 -0.00261666666667 -0.015946875 0.446078
180 1 -0.032484375 -0.00261666666667 -0.014765625 0.290598
181 1 -0.032484375 -0.00261666666667 -0.013584375 0.318376
182 1 -0.032484375 -0.00261666666667 -0.012403125 0.448718
183 1 -0.032484375 -0.00261666666667 -0.011221875 0.639601
184 1 -0.032484375 -0.00261666666667 -0.010040625 0.518519
185 1 -0.032484375 -0.00261666666667 -0.008859375 0.525641
186 1 -0.032484375 -0.00261666666667 -0.007678125 0.507122
187 1 -0.032484375 -0.00261666666667 -0.006496875 0.47792
188 1 -0.032484375 -0.00261666666667 -0.005315625 0.235043
189 1 -0.032484375 -0.00261666666667 -0.004134375 0.279202
190 1 -0.032484375 -0.00261666666667 -0.002953125 0.639601
191 1 -0.032484375 -0.00261666666667 -0.001771875 0.639601
192 1 -0.032484375 -0.00261666666667 -0.000590625 0.648861
193 1 -0.032484375 -0.00261666666667 0.000590625 0.451567
194 1 -0.032484375 -0.00261666666667 0.001771875 0.5
195 1 -0.032484375 -0.00261666666667 0.002953125 0.437322
196 1 -0.032484375 -0.00261666666667 0.004134375 0.602564
197 1 -0.032484375 -0.00261666666667 0.005315625 0.830484
198 1 -0.032484375 -0.00261666666667 0.006496875 0.7151
199 1 -0.032484375 -0.00261666666667 0.007678125 0.837607
200 1 -0.032484375 -0.00261666666667 0.008859375 0.804843
201 1 -0.032484375 -0.00261666666667 0.010040625 0.514245
202 1 -0.032484375 -0.00261666666667 0.011221875 0.514245
203 1 -0.032484375 -0.00261666666667 0.012403125 0.584046
204 1 -0.032484375 -0.00261666666667 0.013584375 0.255698
205 1 -0.032484375 -0.00261666666667 0.014765625 0.297721
206 1 -0.032484375 -0.00261666666667 0.015946875 0.679739
207 1 -0.032484375 -0.00261666666667 0.017128125 0.271429
208 1 -0.032484375 -0.00261666666667 0.018309375 0.257143
209 1 -0.032484375 -0.00125 -0.018309375 0.352381
210 1 -0.032484375 -0.00125 -0.017128125 0.409524
211 1 -0.032484375 -0.00125 -0.015946875 0.446078
212 1 -0.032484375 -0.00125 -0.014765625 0.290598
213 1 -0.032484375 -0.00125 -0.013584375 0.318376
214 1 -0.032484375 -0.00125 -0.012403125 0.448718
215 1 -0.032484375 -0.00125 -0.011221875 0.639601
216 1 -0.032484375 -0.00125 -0.010040625 0.518519
217 1 -0.032484375 -0.00125 -0.008859375 0.525641
218 1 -0.032484375 -0.00125 -0.007678125 0.507122
219 1 -0.032484375 -0.00125 -0.006496875 0.47792
220 1 -0.032484375 -0.00125 -0.005315625 0.235043
221 1 -0.032484375 -0.00125 -0.004134375 0.279202
222 1 -0.032484375 -0.00125 -0.002953125 0.639601
223 1 -0.032484375 -0.00125 -0.001771875 0.639601
224 1 -0.032484375 -0.00125 -0.000590625 0.648861
225 1 -0.032484375 -0.00125 0.000590625 0.451567
226 1 -0.032484375 -0.00125 0.001771875 0.5
227 1 -0.032484375 -0.00125 0.002953125 0.437322
228 1 -0.032484375 -0.00125 0.004134375 0.602564
229 1 -0.032484375 -0.00125 0.005315625 0.830484
230 1 -0.032484375 -0.00125 0.006496875 0.7151
231 1 -0.032484375 -0.00125 0.007678125 0.837607
232 1 -0.032484375 -0.00125 0.008859375 0.804843
233 1 -0.032484375 -0.00125 0.010040625 0.514245
234 1 -0.032484375 -0.00125 0.011221875 0.514245
235 1 -0.032484375 -0.00125 0.012403125 0.584046
236 1 -0.032484375 -0.00125 0.013584375 0.255698
237 1 -0.032484375 -0.00125 0.014765625 0.297721
238 1 -0.032484375 -0.00125 0.015946875 0.679739
239 1 -0.032484375 -0.00125 0.017128125 0.271429
240 1 -0.032484375 -0.00125 0.018309375 0.257143
241 1 -0.032484375 0.000116666666667 -0.018309375 0.352381
242 1 -0.032484375 0.000116666666667 -0.017128125 0.409524
243 1 -0.032484375 0.000116666666667 -0.015946875 0.446078
244 1 -0.032484375 0.000116666666667 -0.014765625 0.290598
245 1 -0.032484375 0.000116666666667 -0.013584375 0.318376
246 1 -0.032484375 0.000116666666667 -0.012403125 0.448718
247 1 -0.032484375 0.000116666666667 -0.011221875 0.639601
248 1 -0.032484375 0.000116666666667 -0.010040625 0.518519
249 1 -0.032484375 0.000116666666667 -0.008859375 0.525641
250 1 -0.032484375 0.000116666666667 -0.007678125 0.507122
251 1 -0.032484375 0.000116666666667 -0.006496875 0.47792
252 1 -0.032484375 0.000116666666667 -0.005315625 0.235043
253 1 -0.032484375 0.000116666666667 -0.004134375 0.279202
254 1 -0.032484375 0.000116666666667 -0.002953125 0.639601
255 1 -0.032484375 0.000116666666667 -0.001771875 0.639601
256 1 -0.032484375 0.000116666666667 -0.000590625 0.648861
257 1 -0.032484375 0.000116666666667 0.000590625 0.451567
258 1 -0.032484375 0.000116666666667 0.001771875 0.5
259 1 -0.032484375 0.000116666666667 0.002953125 0.437322
260 1 -0.032484375 0.000116666666667 0.004134375 0.602564
261 1 -0.032484375 0.000116666666667 0.005315625 0.830484
262 1 -0.032484375 0.000116666666667 0.006496875 0.7151
263 1 -0.032484375 0.000116666666667 0.007678125 0.837607
264 1 -0.032484375 0.000116666666667 0.008859375 0.804843
265 1 -0.032484375 0.000116666666667 0.010040625 0.514245
266 1 -0.032484375 0.000116666666667 0.011221875 0.514245
267 1 -0.032484375 0.000116666666667 0.012403125 0.584046
268 1 -0.032484375 0.000116666666667 0.013584375 0.255698
269 1 -0.032484375 0.000116666666667 0.014765625 0.297721
270 1 -0.032484375 0.000116666666667 0.015946875 0.679739
271 1 -0.032484375 0.000116666666667 0.017128125 0.271429
272 1 -0.032484375 0.000116666666667 0.018309375 0.257143
273 1 -0.031303125 -0.00261666666667 -0.019490625 0.238095
274 1 -0.031303125 -0.00261666666667 -0.018309375 0.150327
275 1 -0.031303125 -0.00261666666667 -0.017128125 0.172365
276 1 -0.031303125 -0.00261666666667 -0.015946875 0.15812
277 1 -0.031303125 -0.00261666666667 -0.014765625 0.195157
278 1 -0.031303125 -0.00261666666667 -0.013584375 0.448718
279 1 -0.031303125 -0.00261666666667 -0.012403125 0.462963
280 1 -0.031303125 -0.00261666666667 -0.011221875 0.665242
281 1 -0.031303125 -0.00261666666667 -0.010040625 0.621083
282 1 -0.031303125 -0.00261666666667 -0.008859375 0.569801
283 1 -0.031303125 -0.00261666666667 -0.007678125 0.804843
284 1 -0.031303125 -0.00261666666667 -0.006496875 0.547721
285 1 -0.031303125 -0.00261666666667 -0.005315625 0.61396
286 1 -0.031303125 -0.00261666666667 -0.004134375 0.444444
287 1 -0.031303125 -0.00261666666667 -0.002953125 0.411681
288 1 -0.031303125 -0.00261666666667 -0.001771875 0.525641
289 1 -0.031303125 -0.00261666666667 -0.000590625 0.516382
290 1 -0.031303125 -0.00261666666667 0.000590625 0.735043
291 1 -0.031303125 -0.00261666666667 0.001771875 0.470085
292 1 -0.031303125 -0.00261666666667 0.002953125 0.374644
293 1 -0.031303125 -0.00261666666667 0.004134375 0.716524
294 1 -0.031303125 -0.00261666666667 0.005315625 0.746439
295 1 -0.031303125 -0.00261666666667 0.006496875 0.7849
296 1 -0.031303125 -0.00261666666667 0.007678125 0.65812
297 1 -0.031303125 -0.00261666666667 0.008859375 0.695157
298 1 -0.031303125 -0.00261666666667 0.010040625 0.525641
299 1 -0.031303125 -0.00261666666667 0.011221875 0.65812
300 1 -0.031303125 -0.00261666666667 0.012403125 0.595442
301 1 -0.031303125 -0.00261666666667 0.013584375 0.212963
302 1 -0.031303125 -0.00261666666667 0.014765625 0.349003
303 1 -0.031303125 -0.00261666666667 0.015946875 0.639601
304 1 -0.031303125 -0.00261666666667 0.017128125 0.460114
305 1 -0.031303125 -0.00261666666667 0.018309375 0.406863
306 1 -0.031303125 -0.00261666666667 0.019490625 0.361905
307 1 -0.031303125 -0.00125 -0.019490625 0.238095
308 1 -0.031303125 -0.00125 -0.018309375 0.150327
309 1 -0.031303125 -0.00125 -0.017128125 0.172365
310 1 -0.031303125 -0.00125 -0.015946875 0.15812
311 1 -0.031303125 -0.00125 -0.014765625 0.195157
312 1 -0.031303125 -0.00125 -0.013584375 0.448718
313 1 -0.031303125 -0.00125 -0.012403125 0.462963
314 1 -0.031303125 -0.00125 -0.011221875 0.665242
315 1 -0.031303125 -0.00125 -0.010040625 0.621083
316 1 -0.031303125 -0.00125 -0.008859375 0.569801
317 1 -0.031303125 -0.00125 -0.007678125 0.804843
318 1 -0.031303125 -0.00125 -0.006496875 0.547721
319 1 -0.031303125 -0.00125 -0.005315625 0.61396
320 1 -0.031303125 -0.00125 -0.004134375 0.444444
321 1 -0.031303125 -0.00125 -0.002953125 0.411681
322 1 -0.031303125 -0.00125 -0.001771875 0.525641
323 1 -0.031303125 -0.00125 -0.000590625 0.516382
324 1 -0.031303125 -0.00125 0.000590625 0.735043
325 1 -0.031303125 -0.00125 0.001771875 0.470085
326 1 -0.031303125 -0.00125 0.002953125 0.374644
327 1 -0.031303125 -0.00125 0.004134375 0.716524
328 1 -0.031303125 -0.00125 0.005315625 0.746439
329 1 -0.031303125 -0.00125 0.006496875 0.7849
330 1 -0.031303125 -0.00125 0.007678125 0.65812
331 1 -0.031303125 -0.00125 0.008859375 0.695157
332 1 -0.031303125 -0.00125 0.010040625 0.525641
333 1 -0.031303125 -0.00125 0.011221875 0.65812
334 1 -0.031303125 -0.00125 0.012403125 0.595442
335 1 -0.031303125 -0.00125 0.013584375 0.212963
336 1 -0.031303125 -0.00125 0.014765625 0.349003
337 1 -0.031303125 -0.00125 0.015946875 0.639601
338 1 -0.031303125 -0.00125 0.017128125 0.460114
339 1 -0.031303125 -0.00125 0.018309375 0.406863
340 1 -0.031303125 -0.00125 0.019490625 0.361905
341 1 -0.031303125 0.000116666666667 -0.019490625 0.238095
342 1 -0.031303125 0.000116666666667 -0.018309375 0.150327
343 1 -0.031303125 0.000116666666667 -0.017128125 0.172365
344 1 -0.031303125 0.000116666666667 -0.015946875 0.15812
345 1 -0.031303125 0.000116666666667 -0.014765625 0.195157
346 1 -0.031303125 0.000116666666667 -0.013584375 0.448718
347 1 -0.031303125 0.000116666666667 -0.012403125 0.462963
348 1 -0.031303125 0.000116666666667 -0.011221875 0.665242
349 1 -0.031303125 0.000116666666667 -0.010040625 0.621083
350 1 -0.031303125 0.000116666666667 -0.008859375 0.569801
351 1 -0.031303125 0.000116666666667 -0.007678125 0.804843
352 1 -0.031303125 0.000116666666667 -0.006496875 0.547721
353 1 -0.031303125 0.000116666666667 -0.005315625 0.61396
354 1 -0.031303125 0.000116666666667 -0.004134375 0.444444
355 1 -0.031303125 0.000116666666667 -0.002953125 0.411681
356 1 -0.031303125 0.000116666666667 -0.001771875 0.525641
357 1 -0.031303125 0.000116666666667 -0.000590625 0.516382
358 1 -0.031303125 0.000116666666667 0.000590625 0.735043
359 1 -0.031303125 0.000116666666667 0.001771875 0.470085
360 1 -0.031303125 0.000116666666667 0.002953125 0.374644
361 1 -0.031303125 0.000116666666667 0.004134375 0.716524
362 1 -0.031303125 0.000116666666667 0.005315625 0.746439
363 1 -0.031303125 0.000116666666667 0.006496875 0.7849
364 1 -0.031303125 0.000116666666667 0.007678125 0.65812
365 1 -0.031303125 0.000116666666667 0.008859375 0.695157
366 1 -0.031303125 0.000116666666667 0.010040625 0.525641
367 1 -0.031303125 0.000116666666667 0.011221875 0.65812
368 1 -0.031303125 0.000116666666667 0.012403125 0.595442
369 1 -0.031303125 0.000116666666667 0.013584375 0.212963
370 1 -0.031303125 0.000116666666667 0.014765625 0.349003
371 1 -0.031303125 0.000116666666667 0.015946875 0.639601
372 1 -0.031303125 0.000116666666667 0.017128125 0.460114
373 1 -0.031303125 0.000116666666667 0.018309375 0.406863
374 1 -0.031303125 0.000116666666667 0.019490625 0.361905
375 1 -0.030121875 -0.00261666666667 -0.020671875 0.143011
376 1 -0.030121875 -0.00261666666667 -0.019490625 0.165242
377 1 -0.030121875 -0.00261666666667 -0.018309375 0.076923
378 1 -0.030121875 -0.00261666666667 -0.017128125 0.0954416
379 1 -0.030121875 -0.00261666666667 -0.015946875 0.102564
380 1 -0.030121875 -0.00261666666667 -0.014765625 0.139601
381 1 -0.030121875 -0.00261666666667 -0.013584375 0.465099
382 1 -0.030121875 -0.00261666666667 -0.012403125 0.330484
383 1 -0.030121875 -0.00261666666667 -0.011221875 0.507122
384 1 -0.030121875 -0.00261666666667 -0.010040625 0.621083
385 1 -0.030121875 -0.00261666666667 -0.008859375 0.602564
386 1 -0.030121875 -0.00261666666667 -0.007678125 0.632479
387 1 -0.030121875 -0.00261666666667 -0.006496875 0.626781
388 1 -0.030121875 -0.00261666666667 -0.005315625 0.742165
389 1 -0.030121875 -0.00261666666667 -0.004134375 0.709402
390 1 -0.030121875 -0.00261666666667 -0.002953125 0.507122
391 1 -0.030121875 -0.00261666666667 -0.001771875 0.38604
392 1 -0.030121875 -0.00261666666667 -0.000590625 0.413817
393 1 -0.030121875 -0.00261666666667 0.000590625 0.823362
394 1 -0.030121875 -0.00261666666667 0.001771875 0.723647
395 1 -0.030121875 -0.00261666666667 0.002953125 0.551282
396 1 -0.030121875 -0.00261666666667 0.004134375 0.676638
397 1 -0.030121875 -0.00261666666667 0.005315625 0.760684
398 1 -0.030121875 -0.00261666666667 0.006496875 0.762821
399 1 -0.030121875 -0.00261666666667 0.007678125 0.739316
400 1 -0.030121875 -0.00261666666667 0.008859375 0.739316
401 1 -0.030121875 -0.00261666666667 0.010040625 0.632479
402 1 -0.030121875 -0.00261666666667 0.011221875 0.746439
403 1 -0.030121875 -0.00261666666667 0.012403125 0.72792
404 1 -0.030121875 -0.00261666666667 0.013584375 0.310541
405 1 -0.030121875 -0.00261666666667 0.014765625 0.45584
406 1 -0.030121875 -0.00261666666667 0.015946875 0.551282
407 1 -0.030121875 -0.00261666666667 0.017128125 0.539886
408 1 -0.030121875 -0.00261666666667 0.018309375 0.562678
409 1 -0.030121875 -0.00261666666667 0.019490625 0.481481
410 1 -0.030121875 -0.00261666666667 0.020671875 0.323678
411 1 -0.030121875 -0.00125 -0.020671875 0.143011
412 1 -0.030121875 -0.00125 -0.019490625 0.165242
413 1 -0.030121875 -0.00125 -0.018309375 0.076923
414 1 -0.030121875 -0.00125 -0.017128125 0.0954416
415 1 -0.030121875 -0.00125 -0.015946875 0.102564
416 1 -0.030121875 -0.00125 -0.014765625 0.139601
417 1 -0.030121875 -0.00125 -0.013584375 0.465099
418 1 -0.030121875 -0.00125 -0.012403125 0.330484
419 1 -0.030121875 -0.00125 -0.011221875 0.507122
420 1 -0.030121875 -0.00125 -0.010040625 0.621083
421 1 -0.030121875 -0.00125 -0.008859375 0.602564
422 1 -0.030121875 -0.00125 -0.007678125 0.632479
423 1 -0.030121875 -0.00125 -0.006496875 0.626781
424 1 -0.030121875 -0.00125 -0.005315625 0.742165
425 1 -0.030121875 -0.00125 -0.004134375 0.709402
426 1 -0.030121875 -0.00125 -0.002953125 0.507122
427 1 -0.030121875 -0.00125 -0.001771875 0.38604
428 1 -0.030121875 -0.00125 -0.000590625 0.413817
429 1 -0.030121875 -0.00125 0.000590625 0.823362
430 1 -0.030121875 -0.00125 0.001771875 0.723647
431 1 -0.030121875 -0.00125 0.002953125 0.551282
432 1 -0.030121875 -0.00125 0.004134375 0.676638
433 1 -0.030121875 -0.00125 0.005315625 0.760684
434 1 -0.030121875 -0.00125 0.006496875 0.762821
435 1 -0.030121875 -0.00125 0.007678125 0.739316
436 1 -0.030121875 -0.00125 0.008859375 0.739316
437 1 -0.030121875 -0.00125 0.010040625 0.632479
438 1 -0.030121875 -0.00125 0.011221875 0.746439
439 1 -0.030121875 -0.00125 0.012403125 0.72792
440 1 -0.030121875 -0.00125 0.013584375 0.310541
441 1 -0.030121875 -0.00125 0.014765625 0.45584
442 1 -0.030121875 -0.00125 0.015946875 0.551282
443 1 -0.030121875 -0.00125 0.017128125 0.539886
444 1 -0.030121875 -0.00125 0.018309375 0.562678
445 1 -0.030121875 -0.00125 0.019490625 0.481481
446 1 -0.030121875 -0.00125 0.020671875 0.323678
447 1 -0.030121875 0.000116666666667 -0.020671875 0.143011
448 1 -0.030121875 0.000116666666667 -0.019490625 0.165242
449 1 -0.030121875 0.000116666666667 -0.018309375 0.076923
450 1 -0.030121875 0.000116666666667 -0.017128125 0.0954416
451 1 -0.030121875 0.000116666666667 -0.015946875 0.102564
452 1 -0.030121875 0.000116666666667 -0.014765625 0.139601
453 1 -0.030121875 0.000116666666667 -0.013584375 0.465099
454 1 -0.030121875 0.000116666666667 -0.012403125 0.330484
455 1 -0.030121875 0.000116666666667 -0.011221875 0.507122
456 1 -0.030121875 0.000116666666667 -0.010040625 0.621083
457 1 -0.030121875 0.000116666666667 -0.008859375 0.602564
458 1 -0.030121875 0.000116666666667 -0.007678125 0.632479
459 1 -0.030121875 0.000116666666667 -0.006496875 0.626781
460 1 -0.030121875 0.000116666666667 -0.005315625 0.742165
461 1 -0.030121875 0.000116666666667 -0.004134375 0.709402
462 1 -0.030121875 0.000116666666667 -0.002953125 0.507122
463 1 -0.030121875 0.000116666666667 -0.001771875 0.38604
464 1 -0.030121875 0.000116666666667 -0.000590625 0.413817
465 1 -0.030121875 0.000116666666667 0.000590625 0.823362
466 1 -0.030121875 0.000116666666667 0.001771875 0.723647
467 1 -0.030121875 0.000116666666667 0.002953125 0.551282
468 1 -0.030121875 0.000116666666667 0.004134375 0.676638
469 1 -0.030121875 0.000116666666667 0.005315625 0.760684
470 1 -0.030121875 0.000116666666667 0.006496875 0.762821
471 1 -0.030121875 0.000116666666667 0.007678125 0.739316
472 1 -0.030121875 0.000116666666667 0.008859375 0.739316
473 1 -0.030121875 0.000116666666667 0.010040625 0.632479
474 1 -0.030121875 0.000116666666667 0.011221875 0.746439
475 1 -0.030121875 0.000116666666667 0.012403125 0.72792
476 1 -0.030121875 0.000116666666667 0.013584375 0.310541
477 1 -0.030121875 0.000116666666667 0.014765625 0.45584
478 1 -0.030121875 0.000116666666667 0.015946875 0.551282
479 1 -0.030121875 0.000116666666667 0.017128125 0.539886
480 1 -0.030121875 0.000116666666667 0.018309375 0.562678
481 1 -0.030121875 0.000116666666667 0.019490625 0.481481
482 1 -0.030121875 0.000116666666667 0.020671875 0.323678
483 1 -0.028940625 -0.00261666666667 -0.021853125 0.113636
484 1 -0.028940625 -0.00261666666667 -0.020671875 0.245035
485 1 -0.028940625 -0.00261666666667 -0.019490625 0.374644
486 1 -0.028940625 -0.00261666666667 -0.018309375 0.165242
487 1 -0.028940625 -0.00261666666667 -0.017128125 0.190883
488 1 -0.028940625 -0.00261666666667 -0.015946875 0.146724
489 1 -0.028940625 -0.00261666666667 -0.014765625 0.190883
490 1 -0.028940625 -0.00261666666667 -0.013584375 0.503561
491 1 -0.028940625 -0.00261666666667 -0.012403125 0.639601
492 1 -0.028940625 -0.00261666666667 -0.011221875 0.569801
493 1 -0.028940625 -0.00261666666667 -0.010040625 0.54416
494 1 -0.028940625 -0.00261666666667 -0.008859375 0.695157
495 1 -0.028940625 -0.00261666666667 -0.007678125 0.404558
496 1 -0.028940625 -0.00261666666667 -0.006496875 0.674501
497 1 -0.028940625 -0.00261666666667 -0.005315625 0.816239
498 1 -0.028940625 -0.00261666666667 -0.004134375 0.753561
499 1 -0.028940625 -0.00261666666667 -0.002953125 0.77208
500 1 -0.028940625 -0.00261666666667 -0.001771875 0.639601
501 1 -0.028940625 -0.00261666666667 -0.000590625 0.470797
502 1 -0.028940625 -0.00261666666667 0.000590625 0.750712
503 1 -0.028940625 -0.00261666666667 0.001771875 0.77208
504 1 -0.028940625 -0.00261666666667 0.002953125 0.683761
505 1 -0.028940625 -0.00261666666667 0.004134375 0.797721
506 1 -0.028940625 -0.00261666666667 0.005315625 0.823362
507 1 -0.028940625 -0.00261666666667 0.006496875 0.810542
508 1 -0.028940625 -0.00261666666667 0.007678125 0.804843
509 1 -0.028940625 -0.00261666666667 0.008859375 0.72792
510 1 -0.028940625 -0.00261666666667 0.010040625 0.702279
511 1 -0.028940625 -0.00261666666667 0.011221875 0.602564
512 1 -0.028940625 -0.00261666666667 0.012403125 0.595442
513 1 -0.028940625 -0.00261666666667 0.013584375 0.566239
514 1 -0.028940625 -0.00261666666667 0.014765625 0.690883
515 1 -0.028940625 -0.00261666666667 0.015946875 0.65812
516 1 -0.028940625 -0.00261666666667 0.017128125 0.632479
517 1 -0.028940625 -0.00261666666667 0.018309375 0.723647
518 1 -0.028940625 -0.00261666666667 0.019490625 0.676638
519 1 -0.028940625 -0.00261666666667 0.020671875 0.367919
520 1 -0.028940625 -0.00261666666667 0.021853125 0.609848
521 1 -0.028940625 -0.00125 -0.021853125 0.113636
522 1 -0.028940625 -0.00125 -0.020671875 0.245035
523 1 -0.028940625 -0.00125 -0.019490625 0.374644
524 1 -0.028940625 -0.00125 -0.018309375 0.165242
525 1 -0.028940625 -0.00125 -0.017128125 0.190883
526 1 -0.028940625 -0.00125 -0.015946875 0.146724
527 1 -0.028940625 -0.00125 -0.014765625 0.190883
528 1 -0.028940625 -0.00125 -0.013584375 0.503561
529 1 -0.028940625 -0.00125 -0.012403125 0.639601
530 1 -0.028940625 -0.00125 -0.011221875 0.569801
531 1 -0.028940625 -0.00125 -0.010040625 0.54416
532 1 -0.028940625 -0.00125 -0.008859375 0.695157
533 1 -0.028940625 -0.00125 -0.007678125 0.404558
534 1 -0.028940625 -0.00125 -0.006496875 0.674501
535 1 -0.028940625 -0.00125 -0.005315625 0.816239
536 1 -0.028940625 -0.00125 -0.004134375 0.753561
537 1 -0.028940625 -0.00125 -0.002953125 0.77208
538 1 -0.028940625 -0.00125 -0.001771875 0.639601