ITEM: TIMESTEP
0
ITEM: NUMBER OF ATOMS
9240
ITEM: BOX BOUNDS ss ss ss
-3.7007399999999996e-02 3.7007399999999996e-02
-2.0002499999999999e-03 2.5000000000000004e-07
-3.7007399999999996e-02 3.7007399999999996e-02
ITEM: ATOMS id type x y z c_1
0 1 -0.037209375 -0.00261666666667 -0.000590625 1.0
1 1 -0.037209375 -0.00125 -0.000590625 1.0
2 1 -0.037209375 0.000116666666667 -0.000590625 1.0
3 1 -0.036028125 -0.00261666666667 -0.007678125 0.0001
4 1 -0.036028125 -0.00261666666667 -0.006496875 0.037037
5 1 -0.036028125 -0.00261666666667 -0.005315625 0.037037
6 1 -0.036028125 -0.00261666666667 -0.004134375 0.037037
7 1 -0.036028125 -0.00261666666667 -0.002953125 0.037037
8 1 -0.036028125 -0.00261666666667 -0.001771875 0.0001
9 1 -0.036028125 -0.00261666666667 -0.000590625 0.114286
10 1 -0.036028125 -0.00261666666667 0.000590625 0.350784
11 1 -0.036028125 -0.00261666666667 0.001771875 0.512821
12 1 -0.036028125 -0.00261666666667 0.002953125 0.401709
13 1 -0.036028125 -0.00261666666667 0.004134375 0.136752
14 1 -0.036028125 -0.00261666666667 0.005315625 0.074074
15 1 -0.036028125 -0.00261666666667 0.006496875 0.125356
16 1 -0.036028125 -0.00261666666667 0.007678125 0.108852
17 1 -0.036028125 -0.00125 -0.007678125 0.0001
18 1 -0.036028125 -0.00125 -0.006496875 0.037037
19 1 -0.036028125 -0.00125 -0.005315625 0.037037
20 1 -0.036028125 -0.00125 -0.004134375 0.037037
21 1 -0.036028125 -0.00125 -0.002953125 0.037037
22 1 -0.036028125 -0.00125 -0.001771875 0.0001
23 1 -0.036028125 -0.00125 -0.000590625 0.114286
24 1 -0.036028125 -0.00125 0.000590625 0.350784
25 1 -0.036028125 -0.00125 0.001771875 0.512821
26 1 -0.036028125 -0.00125 0.002953125 0.401709
27 1 -0.036028125 -0.00125 0.004134375 0.136752
28 1 -0.036028125 -0.00125 0.005315625 0.074074
29 1 -0.036028125 -0.00125 0.006496875 0.125356
30 1 -0.036028125 -0.00125 0.007678125 0.108852
31 1 -0.036028125 0.000116666666667 -0.007678125 0.0001
32 1 -0.036028125 0.000116666666667 -0.006496875 0.037037
33 1 -0.036028125 0.000116666666667 -0.005315625 0.037037
34 1 -0.036028125 0.000116666666667 -0.004134375 0.037037
35 1 -0.036028125 0.000116666666667 -0.002953125 0.037037
36 1 -0.036028125 0.000116666666667 -0.001771875 0.0001
37 1 -0.036028125 0.000116666666667 -0.000590625 0.114286
38 1 -0.036028125 0.000116666666667 0.000590625 0.350784
39 1 -0.036028125 0.000116666666667 0.001771875 0.512821
40 1 -0.036028125 0.000116666666667 0.002953125 0.401709
41 1 -0.036028125 0.000116666666667 0.004134375 0.136752
42 1 -0.036028125 0.000116666666667 0.005315625 0.074074
43 1 -0.036028125 0.000116666666667 0.006496875 0.125356
44 1 -0.036028125 0.000116666666667 0.007678125 0.108852
45 1 -0.034846875 -0.00261666666667 -0.011221875 0.304762
46 1 -0.034846875 -0.00261666666667 -0.010040625 0.173789
47 1 -0.034846875 -0.00261666666667 -0.008859375 0.0333333
48 1 -0.034846875 -0.00261666666667 -0.007678125 0.0001
49 1 -0.034846875 -0.00261666666667 -0.006496875 0.025641
50 1 -0.034846875 -0.00261666666667 -0.005315625 0.0128205
51 1 -0.034846875 -0.00261666666667 -0.004134375 0.0001
52 1 -0.034846875 -0.00261666666667 -0.002953125 0.0001
53 1 -0.034846875 -0.00261666666667 -0.001771875 0.0001
54 1 -0.034846875 -0.00261666666667 -0.000590625 0.0441596
55 1 -0.034846875 -0.00261666666667 0.000590625 0.183761
56 1 -0.034846875 -0.00261666666667 0.001771875 0.411681
57 1 -0.034846875 -0.00261666666667 0.002953125 0.27208
58 1 -0.034846875 -0.00261666666667 0.004134375 0.0883191
59 1 -0.034846875 -0.00261666666667 0.005315625 0.0001
60 1 -0.034846875 -0.00261666666667 0.006496875 0.051282
61 1 -0.034846875 -0.00261666666667 0.007678125 0.134301
62 1 -0.034846875 -0.00261666666667 0.008859375 0.47619
63 1 -0.034846875 -0.00261666666667 0.010040625 0.062678
64 1 -0.034846875 -0.00261666666667 0.011221875 0.047619
65 1 -0.034846875 -0.00125 -0.011221875 0.304762
66 1 -0.034846875 -0.00125 -0.010040625 0.173789
67 1 -0.034846875 -0.00125 -0.008859375 0.0333333
68 1 -0.034846875 -0.00125 -0.007678125 0.0001
69 1 -0.034846875 -0.00125 -0.006496875 0.025641
70 1 -0.034846875 -0.00125 -0.005315625 0.0128205
71 1 -0.034846875 -0.00125 -0.004134375 0.0001
72 1 -0.034846875 -0.00125 -0.002953125 0.0001
73 1 -0.034846875 -0.00125 -0.001771875 0.0001
74 1 -0.034846875 -0.00125 -0.000590625 0.0441596
75 1 -0.034846875 -0.00125 0.000590625 0.183761
76 1 -0.034846875 -0.00125 0.001771875 0.411681
77 1 -0.034846875 -0.00125 0.002953125 0.27208
78 1 -0.034846875 -0.00125 0.004134375 0.0883191
79 1 -0.034846875 -0.00125 0.005315625 0.0001
80 1 -0.034846875 -0.00125 0.006496875 0.051282
81 1 -0.034846875 -0.00125 0.007678125 0.134301
82 1 -0.034846875 -0.00125 0.008859375 0.47619
83 1 -0.034846875 -0.00125 0.010040625 0.062678
84 1 -0.034846875 -0.00125 0.011221875 0.047619
85 1 -0.034846875 0.000116666666667 -0.011221875 0.304762
86 1 -0.034846875 0.000116666666667 -0.010040625 0.173789
87 1 -0.034846875 0.000116666666667 -0.008859375 0.0333333
88 1 -0.034846875 0.000116666666667 -0.007678125 0.0001
89 1 -0.034846875 0.000116666666667 -0.006496875 0.025641
90 1 -0.034846875 0.000116666666667 -0.005315625 0.0128205
91 1 -0.034846875 0.000116666666667 -0.004134375 0.0001
92 1 -0.034846875 0.000116666666667 -0.002953125 0.0001
93 1 -0.034846875 0.000116666666667 -0.001771875 0.0001
94 1 -0.034846875 0.000116666666667 -0.000590625 0.0441596
95 1 -0.034846875 0.000116666666667 0.000590625 0.183761
96 1 -0.034846875 0.000116666666667 0.001771875 0.411681
97 1 -0.034846875 0.000116666666667 0.002953125 0.27208
98 1 -0.034846875 0.000116666666667 0.004134375 0.0883191
99 1 -0.034846875 0.000116666666667 0.005315625 0.0001
100 1 -0.034846875 0.000116666666667 0.006496875 0.051282
101 1 -0.034846875 0.000116666666667 0.007678125 0.134301
102 1 -0.034846875 0.000116666666667 0.008859375 0.47619
103 1 -0.034846875 0.000116666666667 0.010040625 0.062678
104 1 -0.034846875 0.000116666666667 0.011221875 0.047619
105 1 -0.033665625 -0.00261666666667 -0.013584375 0.708858
106 1 -0.033665625 -0.00261666666667 -0.012403125 0.512066
107 1 -0.033665625 -0.00261666666667 -0.011221875 0.316114
108 1 -0.033665625 -0.00261666666667 -0.010040625 0.139601
109 1 -0.033665625 -0.00261666666667 -0.008859375 0.0641025
110 1 -0.033665625 -0.00261666666667 -0.007678125 0.0384616
111 1 -0.033665625 -0.00261666666667 -0.006496875 0.0721747
112 1 -0.033665625 -0.00261666666667 -0.005315625 0.025641
113 1 -0.033665625 -0.00261666666667 -0.004134375 0.0477208
114 1 -0.033665625 -0.00261666666667 -0.002953125 0.0826211
115 1 -0.033665625 -0.00261666666667 -0.001771875 0.104701
116 1 -0.033665625 -0.00261666666667 -0.000590625 0.14886
117 1 -0.033665625 -0.00261666666667 0.000590625 0.31339
118 1 -0.033665625 -0.00261666666667 0.001771875 0.446581
119 1 -0.033665625 -0.00261666666667 0.002953125 0.36396
120 1 -0.033665625 -0.00261666666667 0.004134375 0.025641
121 1 -0.033665625 -0.00261666666667 0.005315625 0.0001
122 1 -0.033665625 -0.00261666666667 0.006496875 0.0001
123 1 -0.033665625 -0.00261666666667 0.007678125 0.209402
124 1 -0.033665625 -0.00261666666667 0.008859375 0.393162
125 1 -0.033665625 -0.00261666666667 0.010040625 0.11396
126 1 -0.033665625 -0.00261666666667 0.011221875 0.0001
127 1 -0.033665625 -0.00261666666667 0.012403125 0.0333333
128 1 -0.033665625 -0.00261666666667 0.013584375 0.0001
129 1 -0.033665625 -0.00125 -0.013584375 0.708858
130 1 -0.033665625 -0.00125 -0.012403125 0.512066
131 1 -0.033665625 -0.00125 -0.011221875 0.316114
132 1 -0.033665625 -0.00125 -0.010040625 0.139601
133 1 -0.033665625 -0.00125 -0.008859375 0.0641025
134 1 -0.033665625 -0.00125 -0.007678125 0.0384616
135 1 -0.033665625 -0.00125 -0.006496875 0.0721747
136 1 -0.033665625 -0.00125 -0.005315625 0.025641
137 1 -0.033665625 -0.00125 -0.004134375 0.0477208
138 1 -0.033665625 -0.00125 -0.002953125 0.0826211
139 1 -0.033665625 -0.00125 -0.001771875 0.104701
140 1 -0.033665625 -0.00125 -0.000590625 0.14886
141 1 -0.033665625 -0.00125 0.000590625 0.31339
142 1 -0.033665625 -0.00125 0.001771875 0.446581
143 1 -0.033665625 -0.00125 0.002953125 0.36396
144 1 -0.033665625 -0.00125 0.004134375 0.025641
145 1 -0.033665625 -0.00125 0.005315625 0.0001
146 1 -0.033665625 -0.00125 0.006496875 0.0001
147 1 -0.033665625 -0.00125 0.007678125 0.209402
148 1 -0.033665625 -0.00125 0.008859375 0.393162
149 1 -0.033665625 -0.00125 0.010040625 0.11396
150 1 -0.033665625 -0.00125 0.011221875 0.0001
151 1 -0.033665625 -0.00125 0.012403125 0.0333333
152 1 -0.033665625 -0.00125 0.013584375 0.0001
153 1 -0.033665625 0.000116666666667 -0.013584375 0.708858
154 1 -0.033665625 0.000116666666667 -0.012403125 0.512066
155 1 -0.033665625 0.000116666666667 -0.011221875 0.316114
156 1 -0.033665625 0.000116666666667 -0.010040625 0.139601
157 1 -0.033665625 0.000116666666667 -0.008859375 0.0641025
158 1 -0.033665625 0.000116666666667 -0.007678125 0.0384616
159 1 -0.033665625 0.000116666666667 -0.006496875 0.0721747
160 1 -0.033665625 0.000116666666667 -0.005315625 0.025641
161 1 -0.033665625 0.000116666666667 -0.004134375 0.0477208
162 1 -0.033665625 0.000116666666667 -0.002953125 0.0826211
163 1 -0.033665625 0.000116666666667 -0.001771875 0.104701
164 1 -0.033665625 0.000116666666667 -0.000590625 0.14886
165 1 -0.033665625 0.000116666666667 0.000590625 0.31339
166 1 -0.033665625 0.000116666666667 0.001771875 0.446581
167 1 -0.033665625 0.000116666666667 0.002953125 0.36396
168 1 -0.033665625 0.000116666666667 0.004134375 0.025641
169 1 -0.033665625 0.000116666666667 0.005315625 0.0001
170 1 -0.033665625 0.000116666666667 0.006496875 0.0001
171 1 -0.033665625 0.000116666666667 0.007678125 0.209402
172 1 -0.033665625 0.000116666666667 0.008859375 0.393162
173 1 -0.033665625 0.000116666666667 0.010040625 0.11396
174 1 -0.033665625 0.000116666666667 0.011221875 0.0001
175 1 -0.033665625 0.000116666666667 0.012403125 0.0333333
176 1 -0.033665625 0.000116666666667 0.013584375 0.0001
177 1 -0.032484375 -0.00261666666667 -0.018309375 0.966667
178 1 -0.032484375 -0.00261666666667 -0.017128125 0.647619
179 1 -0.032484375 -0.00261666666667 -0.015946875 0.339869
180 1 -0.032484375 -0.00261666666667 -0.014765625 0.562678
181 1 -0.032484375 -0.00261666666667 -0.013584375 0.525641
182 1 -0.032484375 -0.00261666666667 -0.012403125 0.519943
183 1 -0.032484375 -0.00261666666667 -0.011221875 0.525641
184 1 -0.032484375 -0.00261666666667 -0.010040625 0.235043
185 1 -0.032484375 -0.00261666666667 -0.008859375 0.165242
186 1 -0.032484375 -0.00261666666667 -0.007678125 0.11396
187 1 -0.032484375 -0.00261666666667 -0.006496875 0.165242
188 1 -0.032484375 -0.00261666666667 -0.005315625 0.0954415
189 1 -0.032484375 -0.00261666666667 -0.004134375 0.11396
190 1 -0.032484375 -0.00261666666667 -0.002953125 0.121083
191 1 -0.032484375 -0.00261666666667 -0.001771875 0.202279
192 1 -0.032484375 -0.00261666666667 -0.000590625 0.532763
193 1 -0.032484375 -0.00261666666667 0.000590625 0.69302
194 1 -0.032484375 -0.00261666666667 0.001771875 0.507123
195 1 -0.032484375 -0.00261666666667 0.002953125 0.595442
196 1 -0.032484375 -0.00261666666667 0.004134375 0.246439
197 1 -0.032484375 -0.00261666666667 0.005315625 0.11396
198 1 -0.032484375 -0.00261666666667 0.006496875 0.082621
199 1 -0.032484375 -0.00261666666667 0.007678125 0.334401
200 1 -0.032484375 -0.00261666666667 0.008859375 0.126781
201 1 -0.032484375 -0.00261666666667 0.010040625 0.0349003
202 1 -0.032484375 -0.00261666666667 0.011221875 0.00925927
203 1 -0.032484375 -0.00261666666667 0.012403125 0.0001
204 1 -0.032484375 -0.00261666666667 0.013584375 0.0001
205 1 -0.032484375 -0.00261666666667 0.014765625 0.0001
206 1 -0.032484375 -0.00261666666667 0.015946875 0.0001
207 1 -0.032484375 -0.00261666666667 0.017128125 0.0001
208 1 -0.032484375 -0.00261666666667 0.018309375 0.0001
209 1 -0.032484375 -0.00125 -0.018309375 0.966667
210 1 -0.032484375 -0.00125 -0.017128125 0.647619
211 1 -0.032484375 -0.00125 -0.015946875 0.339869
212 1 -0.032484375 -0.00125 -0.014765625 0.562678
213 1 -0.032484375 -0.00125 -0.013584375 0.525641
214 1 -0.032484375 -0.00125 -0.012403125 0.519943
215 1 -0.032484375 -0.00125 -0.011221875 0.525641
216 1 -0.032484375 -0.00125 -0.010040625 0.235043
217 1 -0.032484375 -0.00125 -0.008859375 0.165242
218 1 -0.032484375 -0.00125 -0.007678125 0.11396
219 1 -0.032484375 -0.00125 -0.006496875 0.165242
220 1 -0.032484375 -0.00125 -0.005315625 0.0954415
221 1 -0.032484375 -0.00125 -0.004134375 0.11396
222 1 -0.032484375 -0.00125 -0.002953125 0.121083
223 1 -0.032484375 -0.00125 -0.001771875 0.202279
224 1 -0.032484375 -0.00125 -0.000590625 0.532763
225 1 -0.032484375 -0.00125 0.000590625 0.69302
226 1 -0.032484375 -0.00125 0.001771875 0.507123
227 1 -0.032484375 -0.00125 0.002953125 0.595442
228 1 -0.032484375 -0.00125 0.004134375 0.246439
229 1 -0.032484375 -0.00125 0.005315625 0.11396
230 1 -0.032484375 -0.00125 0.006496875 0.082621
231 1 -0.032484375 -0.00125 0.007678125 0.334401
232 1 -0.032484375 -0.00125 0.008859375 0.126781
233 1 -0.032484375 -0.00125 0.010040625 0.0349003
234 1 -0.032484375 -0.00125 0.011221875 0.00925927
235 1 -0.032484375 -0.00125 0.012403125 0.0001
236 1 -0.032484375 -0.00125 0.013584375 0.0001
237 1 -0.032484375 -0.00125 0.014765625 0.0001
238 1 -0.032484375 -0.00125 0.015946875 0.0001
239 1 -0.032484375 -0.00125 0.017128125 0.0001
240 1 -0.032484375 -0.00125 0.018309375 0.0001
241 1 -0.032484375 0.000116666666667 -0.018309375 0.966667
242 1 -0.032484375 0.000116666666667 -0.017128125 0.647619
243 1 -0.032484375 0.000116666666667 -0.015946875 0.339869
244 1 -0.032484375 0.000116666666667 -0.014765625 0.562678
245 1 -0.032484375 0.000116666666667 -0.013584375 0.525641
246 1 -0.032484375 0.000116666666667 -0.012403125 0.519943
247 1 -0.032484375 0.000116666666667 -0.011221875 0.525641
248 1 -0.032484375 0.000116666666667 -0.010040625 0.235043
249 1 -0.032484375 0.000116666666667 -0.008859375 0.165242
250 1 -0.032484375 0.000116666666667 -0.007678125 0.11396
251 1 -0.032484375 0.000116666666667 -0.006496875 0.165242
252 1 -0.032484375 0.000116666666667 -0.005315625 0.0954415
253 1 -0.032484375 0.000116666666667 -0.004134375 0.11396
254 1 -0.032484375 0.000116666666667 -0.002953125 0.121083
255 1 -0.032484375 0.000116666666667 -0.001771875 0.202279
256 1 -0.032484375 0.000116666666667 -0.000590625 0.532763
257 1 -0.032484375 0.000116666666667 0.000590625 0.69302
258 1 -0.032484375 0.000116666666667 0.001771875 0.507123
259 1 -0.032484375 0.000116666666667 0.002953125 0.595442
260 1 -0.032484375 0.000116666666667 0.004134375 0.246439
261 1 -0.032484375 0.000116666666667 0.005315625 0.11396
262 1 -0.032484375 0.000116666666667 0.006496875 0.082621
263 1 -0.032484375 0.000116666666667 0.007678125 0.334401
264 1 -0.032484375 0.000116666666667 0.008859375 0.126781
265 1 -0.032484375 0.000116666666667 0.010040625 0.0349003
266 1 -0.032484375 0.000116666666667 0.011221875 0.00925927
267 1 -0.032484375 0.000116666666667 0.012403125 0.0001
268 1 -0.032484375 0.000116666666667 0.013584375 0.0001
269 1 -0.032484375 0.000116666666667 0.014765625 0.0001
270 1 -0.032484375 0.000116666666667 0.015946875 0.0001
271 1 -0.032484375 0.000116666666667 0.017128125 0.0001
272 1 -0.032484375 0.000116666666667 0.018309375 0.0001
273 1 -0.031303125 -0.00261666666667 -0.019490625 0.914286
274 1 -0.031303125 -0.00261666666667 -0.018309375 0.584967
275 1 -0.031303125 -0.00261666666667 -0.017128125 0.551282
276 1 -0.031303125 -0.00261666666667 -0.015946875 0.683761
277 1 -0.031303125 -0.00261666666667 -0.014765625 0.532763
278 1 -0.031303125 -0.00261666666667 -0.013584375 0.470086
279 1 -0.031303125 -0.00261666666667 -0.012403125 0.569801
280 1 -0.031303125 -0.00261666666667 -0.011221875 0.45584
281 1 -0.031303125 -0.00261666666667 -0.010040625 0.279202
282 1 -0.031303125 -0.00261666666667 -0.008859375 0.220798
283 1 -0.031303125 -0.00261666666667 -0.007678125 0.202279
284 1 -0.031303125 -0.00261666666667 -0.006496875 0.26282
285 1 -0.031303125 -0.00261666666667 -0.005315625 0.444444
286 1 -0.031303125 -0.00261666666667 -0.004134375 0.437322
287 1 -0.031303125 -0.00261666666667 -0.002953125 0.430199
288 1 -0.031303125 -0.00261666666667 -0.001771875 0.532763
289 1 -0.031303125 -0.00261666666667 -0.000590625 0.595442
290 1 -0.031303125 -0.00261666666667 0.000590625 0.44302
291 1 -0.031303125 -0.00261666666667 0.001771875 0.411681
292 1 -0.031303125 -0.00261666666667 0.002953125 0.418803
293 1 -0.031303125 -0.00261666666667 0.004134375 0.514245
294 1 -0.031303125 -0.00261666666667 0.005315625 0.411681
295 1 -0.031303125 -0.00261666666667 0.006496875 0.279202
296 1 -0.031303125 -0.00261666666667 0.007678125 0.231481
297 1 -0.031303125 -0.00261666666667 0.008859375 0.139601
298 1 -0.031303125 -0.00261666666667 0.010040625 0.0001
299 1 -0.031303125 -0.00261666666667 0.011221875 0.0001
300 1 -0.031303125 -0.00261666666667 0.012403125 0.0001
301 1 -0.031303125 -0.00261666666667 0.013584375 0.0349003
302 1 -0.031303125 -0.00261666666667 0.014765625 0.0954416
303 1 -0.031303125 -0.00261666666667 0.015946875 0.0001
304 1 -0.031303125 -0.00261666666667 0.017128125 0.0001
305 1 -0.031303125 -0.00261666666667 0.018309375 0.0001
306 1 -0.031303125 -0.00261666666667 0.019490625 0.0001
307 1 -0.031303125 -0.00125 -0.019490625 0.914286
308 1 -0.031303125 -0.00125 -0.018309375 0.584967
309 1 -0.031303125 -0.00125 -0.017128125 0.551282
310 1 -0.031303125 -0.00125 -0.015946875 0.683761
311 1 -0.031303125 -0.00125 -0.014765625 0.532763
312 1 -0.031303125 -0.00125 -0.013584375 0.470086
313 1 -0.031303125 -0.00125 -0.012403125 0.569801
314 1 -0.031303125 -0.00125 -0.011221875 0.45584
315 1 -0.031303125 -0.00125 -0.010040625 0.279202
316 1 -0.031303125 -0.00125 -0.008859375 0.220798
317 1 -0.031303125 -0.00125 -0.007678125 0.202279
318 1 -0.031303125 -0.00125 -0.006496875 0.26282
319 1 -0.031303125 -0.00125 -0.005315625 0.444444
320 1 -0.031303125 -0.00125 -0.004134375 0.437322
321 1 -0.031303125 -0.00125 -0.002953125 0.430199
322 1 -0.031303125 -0.00125 -0.001771875 0.532763
323 1 -0.031303125 -0.00125 -0.000590625 0.595442
324 1 -0.031303125 -0.00125 0.000590625 0.44302
325 1 -0.031303125 -0.00125 0.001771875 0.411681
326 1 -0.031303125 -0.00125 0.002953125 0.418803
327 1 -0.031303125 -0.00125 0.004134375 0.514245
328 1 -0.031303125 -0.00125 0.005315625 0.411681
329 1 -0.031303125 -0.00125 0.006496875 0.279202
330 1 -0.031303125 -0.00125 0.007678125 0.231481
331 1 -0.031303125 -0.00125 0.008859375 0.139601
332 1 -0.031303125 -0.00125 0.010040625 0.0001
333 1 -0.031303125 -0.00125 0.011221875 0.0001
334 1 -0.031303125 -0.00125 0.012403125 0.0001
335 1 -0.031303125 -0.00125 0.013584375 0.0349003
336 1 -0.031303125 -0.00125 0.014765625 0.0954416
337 1 -0.031303125 -0.00125 0.015946875 0.0001
338 1 -0.031303125 -0.00125 0.017128125 0.0001
339 1 -0.031303125 -0.00125 0.018309375 0.0001
340 1 -0.031303125 -0.00125 0.019490625 0.0001
341 1 -0.031303125 0.000116666666667 -0.019490625 0.914286
342 1 -0.031303125 0.000116666666667 -0.018309375 0.584967
343 1 -0.031303125 0.000116666666667 -0.017128125 0.551282
344 1 -0.031303125 0.000116666666667 -0.015946875 0.683761
345 1 -0.031303125 0.000116666666667 -0.014765625 0.532763
346 1 -0.031303125 0.000116666666667 -0.013584375 0.470086
347 1 -0.031303125 0.000116666666667 -0.012403125 0.569801
348 1 -0.031303125 0.000116666666667 -0.011221875 0.45584
349 1 -0.031303125 0.000116666666667 -0.010040625 0.279202
350 1 -0.031303125 0.000116666666667 -0.008859375 0.220798
351 1 -0.031303125 0.000116666666667 -0.007678125 0.202279
352 1 -0.031303125 0.000116666666667 -0.006496875 0.26282
353 1 -0.031303125 0.000116666666667 -0.005315625 0.444444
354 1 -0.031303125 0.000116666666667 -0.004134375 0.437322
355 1 -0.031303125 0.000116666666667 -0.002953125 0.430199
356 1 -0.031303125 0.000116666666667 -0.001771875 0.532763
357 1 -0.031303125 0.000116666666667 -0.000590625 0.595442
358 1 -0.031303125 0.000116666666667 0.000590625 0.44302
359 1 -0.031303125 0.000116666666667 0.001771875 0.411681
360 1 -0.031303125 0.000116666666667 0.002953125 0.418803
361 1 -0.031303125 0.000116666666667 0.004134375 0.514245
362 1 -0.031303125 0.000116666666667 0.005315625 0.411681
363 1 -0.031303125 0.000116666666667 0.006496875 0.279202
364 1 -0.031303125 0.000116666666667 0.007678125 0.231481
365 1 -0.031303125 0.000116666666667 0.008859375 0.139601
366 1 -0.031303125 0.000116666666667 0.010040625 0.0001
367 1 -0.031303125 0.000116666666667 0.011221875 0.0001
368 1 -0.031303125 0.000116666666667 0.012403125 0.0001
369 1 -0.031303125 0.000116666666667 0.013584375 0.0349003
370 1 -0.031303125 0.000116666666667 0.014765625 0.0954416
371 1 -0.031303125 0.000116666666667 0.015946875 0.0001
372 1 -0.031303125 0.000116666666667 0.017128125 0.0001
373 1 -0.031303125 0.000116666666667 0.018309375 0.0001
374 1 -0.031303125 0.000116666666667 0.019490625 0.0001
375 1 -0.030121875 -0.00261666666667 -0.020671875 0.837121
376 1 -0.030121875 -0.00261666666667 -0.019490625 0.775976
377 1 -0.030121875 -0.00261666666667 -0.018309375 0.764957
378 1 -0.030121875 -0.00261666666667 -0.017128125 0.669516
379 1 -0.030121875 -0.00261666666667 -0.015946875 0.904558
380 1 -0.030121875 -0.00261666666667 -0.014765625 0.61396
381 1 -0.030121875 -0.00261666666667 -0.013584375 0.900285
382 1 -0.030121875 -0.00261666666667 -0.012403125 0.703704
383 1 -0.030121875 -0.00261666666667 -0.011221875 0.38604
384 1 -0.030121875 -0.00261666666667 -0.010040625 0.323362
385 1 -0.030121875 -0.00261666666667 -0.008859375 0.304843
386 1 -0.030121875 -0.00261666666667 -0.007678125 0.393162
387 1 -0.030121875 -0.00261666666667 -0.006496875 0.558974
388 1 -0.030121875 -0.00261666666667 -0.005315625 0.636752
389 1 -0.030121875 -0.00261666666667 -0.004134375 0.779202
390 1 -0.030121875 -0.00261666666667 -0.002953125 0.61396
391 1 -0.030121875 -0.00261666666667 -0.001771875 0.477208
392 1 -0.030121875 -0.00261666666667 -0.000590625 0.22792
393 1 -0.030121875 -0.00261666666667 0.000590625 0.281339
394 1 -0.030121875 -0.00261666666667 0.001771875 0.183761
395 1 -0.030121875 -0.00261666666667 0.002953125 0.38604
396 1 -0.030121875 -0.00261666666667 0.004134375 0.34188
397 1 -0.030121875 -0.00261666666667 0.005315625 0.11396
398 1 -0.030121875 -0.00261666666667 0.006496875 0.246439
399 1 -0.030121875 -0.00261666666667 0.007678125 0.139601
400 1 -0.030121875 -0.00261666666667 0.008859375 0.0001
401 1 -0.030121875 -0.00261666666667 0.010040625 0.0001
402 1 -0.030121875 -0.00261666666667 0.011221875 0.0001
403 1 -0.030121875 -0.00261666666667 0.012403125 0.0001
404 1 -0.030121875 -0.00261666666667 0.013584375 0.19302
405 1 -0.030121875 -0.00261666666667 0.014765625 0.253561
406 1 -0.030121875 -0.00261666666667 0.015946875 0.025641
407 1 -0.030121875 -0.00261666666667 0.017128125 0.0883191
408 1 -0.030121875 -0.00261666666667 0.018309375 0.025641
409 1 -0.030121875 -0.00261666666667 0.019490625 0.0001
410 1 -0.030121875 -0.00261666666667 0.020671875 0.0138889
411 1 -0.030121875 -0.00125 -0.020671875 0.837121
412 1 -0.030121875 -0.00125 -0.019490625 0.775976
413 1 -0.030121875 -0.00125 -0.018309375 0.764957
414 1 -0.030121875 -0.00125 -0.017128125 0.669516
415 1 -0.030121875 -0.00125 -0.015946875 0.904558
416 1 -0.030121875 -0.00125 -0.014765625 0.61396
417 1 -0.030121875 -0.00125 -0.013584375 0.900285
418 1 -0.030121875 -0.00125 -0.012403125 0.703704
419 1 -0.030121875 -0.00125 -0.011221875 0.38604
420 1 -0.030121875 -0.00125 -0.010040625 0.323362
421 1 -0.030121875 -0.00125 -0.008859375 0.304843
422 1 -0.030121875 -0.00125 -0.007678125 0.393162
423 1 -0.030121875 -0.00125 -0.006496875 0.558974
424 1 -0.030121875 -0.00125 -0.005315625 0.636752
425 1 -0.030121875 -0.00125 -0.004134375 0.779202
426 1 -0.030121875 -0.00125 -0.002953125 0.61396
427 1 -0.030121875 -0.00125 -0.001771875 0.477208
428 1 -0.030121875 -0.00125 -0.000590625 0.22792
429 1 -0.030121875 -0.00125 0.000590625 0.281339
430 1 -0.030121875 -0.00125 0.001771875 0.183761
431 1 -0.030121875 -0.00125 0.002953125 0.38604
432 1 -0.030121875 -0.00125 0.004134375 0.34188
433 1 -0.030121875 -0.00125 0.005315625 0.11396
434 1 -0.030121875 -0.00125 0.006496875 0.246439
435 1 -0.030121875 -0.00125 0.007678125 0.139601
436 1 -0.030121875 -0.00125 0.008859375 0.0001
437 1 -0.030121875 -0.00125 0.010040625 0.0001
438 1 -0.030121875 -0.00125 0.011221875 0.0001
439 1 -0.030121875 -0.00125 0.012403125 0.0001
440 1 -0.030121875 -0.00125 0.013584375 0.19302
441 1 -0.030121875 -0.00125 0.014765625 0.253561
442 1 -0.030121875 -0.00125 0.015946875 0.025641
443 1 -0.030121875 -0.00125 0.017128125 0.0883191
444 1 -0.030121875 -0.00125 0.018309375 0.025641
445 1 -0.030121875 -0.00125 0.019490625 0.0001
446 1 -0.030121875 -0.00125 0.020671875 0.0138889
447 1 -0.030121875 0.000116666666667 -0.020671875 0.837121
448 1 -0.030121875 0.000116666666667 -0.019490625 0.775976
449 1 -0.030121875 0.000116666666667 -0.018309375 0.764957
450 1 -0.030121875 0.000116666666667 -0.017128125 0.669516
451 1 -0.030121875 0.000116666666667 -0.015946875 0.904558
452 1 -0.030121875 0.000116666666667 -0.014765625 0.61396
453 1 -0.030121875 0.000116666666667 -0.013584375 0.900285
454 1 -0.030121875 0.000116666666667 -0.012403125 0.703704
455 1 -0.030121875 0.000116666666667 -0.011221875 0.38604
456 1 -0.030121875 0.000116666666667 -0.010040625 0.323362
457 1 -0.030121875 0.000116666666667 -0.008859375 0.304843
458 1 -0.030121875 0.000116666666667 -0.007678125 0.393162
459 1 -0.030121875 0.000116666666667 -0.006496875 0.558974
460 1 -0.030121875 0.000116666666667 -0.005315625 0.636752
461 1 -0.030121875 0.000116666666667 -0.004134375 0.779202
462 1 -0.030121875 0.000116666666667 -0.002953125 0.61396
463 1 -0.030121875 0.000116666666667 -0.001771875 0.477208
464 1 -0.030121875 0.000116666666667 -0.000590625 0.22792
465 1 -0.030121875 0.000116666666667 0.000590625 0.281339
466 1 -0.030121875 0.000116666666667 0.001771875 0.183761
467 1 -0.030121875 0.000116666666667 0.002953125 0.38604
468 1 -0.030121875 0.000116666666667 0.004134375 0.34188
469 1 -0.030121875 0.000116666666667 0.005315625 0.11396
470 1 -0.030121875 0.000116666666667 0.006496875 0.246439
471 1 -0.030121875 0.000116666666667 0.007678125 0.139601
472 1 -0.030121875 0.000116666666667 0.008859375 0.0001
473 1 -0.030121875 0.000116666666667 0.010040625 0.0001
474 1 -0.030121875 0.000116666666667 0.011221875 0.0001
475 1 -0.030121875 0.000116666666667 0.012403125 0.0001
476 1 -0.030121875 0.000116666666667 0.013584375 0.19302
477 1 -0.030121875 0.000116666666667 0.014765625 0.253561
478 1 -0.030121875 0.000116666666667 0.015946875 0.025641
479 1 -0.030121875 0.000116666666667 0.017128125 0.0883191
480 1 -0.030121875 0.000116666666667 0.018309375 0.025641
481 1 -0.030121875 0.000116666666667 0.019490625 0.0001
482 1 -0.030121875 0.000116666666667 0.020671875 0.0138889
483 1 -0.028940625 -0.00261666666667 -0.021853125 0.867424
484 1 -0.028940625 -0.00261666666667 -0.020671875 0.838235
485 1 -0.028940625 -0.00261666666667 -0.019490625 0.683761
486 1 -0.028940625 -0.00261666666667 -0.018309375 0.760684
487 1 -0.028940625 -0.00261666666667 -0.017128125 0.937322
488 1 -0.028940625 -0.00261666666667 -0.015946875 0.809117
489 1 -0.028940625 -0.00261666666667 -0.014765625 0.72792
490 1 -0.028940625 -0.00261666666667 -0.013584375 0.735043
491 1 -0.028940625 -0.00261666666667 -0.012403125 0.503561
492 1 -0.028940625 -0.00261666666667 -0.011221875 0.253561
493 1 -0.028940625 -0.00261666666667 -0.010040625 0.532763
494 1 -0.028940625 -0.00261666666667 -0.008859375 0.316239
495 1 -0.028940625 -0.00261666666667 -0.007678125 0.665242
496 1 -0.028940625 -0.00261666666667 -0.006496875 0.613675
497 1 -0.028940625 -0.00261666666667 -0.005315625 0.691239
498 1 -0.028940625 -0.00261666666667 -0.004134375 0.525641
499 1 -0.028940625 -0.00261666666667 -0.002953125 0.311966
500 1 -0.028940625 -0.00261666666667 -0.001771875 0.183761
501 1 -0.028940625 -0.00261666666667 -0.000590625 0.076923
502 1 -0.028940625 -0.00261666666667 0.000590625 0.14886
503 1 -0.028940625 -0.00261666666667 0.001771875 0.139601
504 1 -0.028940625 -0.00261666666667 0.002953125 0.22792
505 1 -0.028940625 -0.00261666666667 0.004134375 0.5
506 1 -0.028940625 -0.00261666666667 0.005315625 0.0698005
507 1 -0.028940625 -0.00261666666667 0.006496875 0.0185185
508 1 -0.028940625 -0.00261666666667 0.007678125 0.00925927
509 1 -0.028940625 -0.00261666666667 0.008859375 0.0001
510 1 -0.028940625 -0.00261666666667 0.010040625 0.0001
511 1 -0.028940625 -0.00261666666667 0.011221875 0.0001
512 1 -0.028940625 -0.00261666666667 0.012403125 0.0001
513 1 -0.028940625 -0.00261666666667 0.013584375 0.15812
514 1 -0.028940625 -0.00261666666667 0.014765625 0.411681
515 1 -0.028940625 -0.00261666666667 0.015946875 0.235043
516 1 -0.028940625 -0.00261666666667 0.017128125 0.34188
517 1 -0.028940625 -0.00261666666667 0.018309375 0.367521
518 1 -0.028940625 -0.00261666666667 0.019490625 0.216524
519 1 -0.028940625 -0.00261666666667 0.020671875 0.0836894
520 1 -0.028940625 -0.00261666666667 0.021853125 0.113636
521 1 -0.028940625 -0.00125 -0.021853125 0.867424
522 1 -0.028940625 -0.00125 -0.020671875 0.838235
523 1 -0.028940625 -0.00125 -0.019490625 0.683761
524 1 -0.028940625 -0.00125 -0.018309375 0.760684
525 1 -0.028940625 -0.00125 -0.017128125 0.937322
526 1 -0.028940625 -0.00125 -0.015946875 0.809117
527 1 -0.028940625 -0.00125 -0.014765625 0.72792
528 1 -0.028940625 -0.00125 -0.013584375 0.735043
529 1 -0.028940625 -0.00125 -0.012403125 0.503561
530 1 -0.028940625 -0.00125 -0.011221875 0.253561
531 1 -0.028940625 -0.00125 -0.010040625 0.532763
532 1 -0.028940625 -0.00125 -0.008859375 0.316239
533 1 -0.028940625 -0.00125 -0.007678125 0.665242
534 1 -0.028940625 -0.00125 -0.006496875 0.613675
535 1 -0.028940625 -0.00125 -0.005315625 0.691239
536 1 -0.028940625 -0.00125 -0.004134375 0.525641
537 1 -0.028940625 -0.00125 -0.002953125 0.311966
538 1 -0.028940625 -0.00125 -0.001771875 0.183761
539 1 -0.028940625 -0.00125 -0.000590625 0.076923
540 1 -0.028940625 -0.00125 0.000590625 0.14886
541 1 -0.028940625 -0.00125 0.001771875 0.139601