ITEM: TIMESTEP
0
ITEM: NUMBER OF ATOMS
9240
ITEM: BOX BOUNDS ss ss ss
-3.7007399999999996e-02 3.7007399999999996e-02
-2.0002499999999999e-03 2.5000000000000004e-07
-3.7007399999999996e-02 3.7007399999999996e-02
ITEM: ATOMS id type x y z c_1
0 1 -0.037209375 -0.00261666666667 -0.000590625 0.8
1 1 -0.037209375 -0.00125 -0.000590625 0.8
2 1 -0.037209375 0.000116666666667 -0.000590625 0.8
3 1 -0.036028125 -0.00261666666667 -0.007678125 0.047619
4 1 -0.036028125 -0.00261666666667 -0.006496875 0.0811965
5 1 -0.036028125 -0.00261666666667 -0.005315625 0.39886
6 1 -0.036028125 -0.00261666666667 -0.004134375 0.299145
7 1 -0.036028125 -0.00261666666667 -0.002953125 0.099715
8 1 -0.036028125 -0.00261666666667 -0.001771875 0.350427
9 1 -0.036028125 -0.00261666666667 -0.000590625 0.652987
10 1 -0.036028125 -0.00261666666667 0.000590625 0.594643
11 1 -0.036028125 -0.00261666666667 0.001771875 0.350427
12 1 -0.036028125 -0.00261666666667 0.002953125 0.099715
13 1 -0.036028125 -0.00261666666667 0.004134375 0.299145
14 1 -0.036028125 -0.00261666666667 0.005315625 0.39886
15 1 -0.036028125 -0.00261666666667 0.006496875 0.0811965
16 1 -0.036028125 -0.00261666666667 0.007678125 0.047619
17 1 -0.036028125 -0.00125 -0.007678125 0.047619
18 1 -0.036028125 -0.00125 -0.006496875 0.0811965
19 1 -0.036028125 -0.00125 -0.005315625 0.39886
20 1 -0.036028125 -0.00125 -0.004134375 0.299145
21 1 -0.036028125 -0.00125 -0.002953125 0.099715
22 1 -0.036028125 -0.00125 -0.001771875 0.350427
23 1 -0.036028125 -0.00125 -0.000590625 0.652987
24 1 -0.036028125 -0.00125 0.000590625 0.594643
25 1 -0.036028125 -0.00125 0.001771875 0.350427
26 1 -0.036028125 -0.00125 0.002953125 0.099715
27 1 -0.036028125 -0.00125 0.004134375 0.299145
28 1 -0.036028125 -0.00125 0.005315625 0.39886
29 1 -0.036028125 -0.00125 0.006496875 0.0811965
30 1 -0.036028125 -0.00125 0.007678125 0.047619
31 1 -0.036028125 0.000116666666667 -0.007678125 0.047619
32 1 -0.036028125 0.000116666666667 -0.006496875 0.0811965
33 1 -0.036028125 0.000116666666667 -0.005315625 0.39886
34 1 -0.036028125 0.000116666666667 -0.004134375 0.299145
35 1 -0.036028125 0.000116666666667 -0.002953125 0.099715
36 1 -0.036028125 0.000116666666667 -0.001771875 0.350427
37 1 -0.036028125 0.000116666666667 -0.000590625 0.652987
38 1 -0.036028125 0.000116666666667 0.000590625 0.594643
39 1 -0.036028125 0.000116666666667 0.001771875 0.350427
40 1 -0.036028125 0.000116666666667 0.002953125 0.099715
41 1 -0.036028125 0.000116666666667 0.004134375 0.299145
42 1 -0.036028125 0.000116666666667 0.005315625 0.39886
43 1 -0.036028125 0.000116666666667 0.006496875 0.0811965
44 1 -0.036028125 0.000116666666667 0.007678125 0.047619
45 1 -0.034846875 -0.00261666666667 -0.011221875 0.0001
46 1 -0.034846875 -0.00261666666667 -0.010040625 0.324786
47 1 -0.034846875 -0.00261666666667 -0.008859375 0.328571
48 1 -0.034846875 -0.00261666666667 -0.007678125 0.272876
49 1 -0.034846875 -0.00261666666667 -0.006496875 0.389601
50 1 -0.034846875 -0.00261666666667 -0.005315625 0.393162
51 1 -0.034846875 -0.00261666666667 -0.004134375 0.165242
52 1 -0.034846875 -0.00261666666667 -0.002953125 0.380342
53 1 -0.034846875 -0.00261666666667 -0.001771875 0.450142
54 1 -0.034846875 -0.00261666666667 -0.000590625 0.581197
55 1 -0.034846875 -0.00261666666667 0.000590625 0.560684
56 1 -0.034846875 -0.00261666666667 0.001771875 0.450142
57 1 -0.034846875 -0.00261666666667 0.002953125 0.380342
58 1 -0.034846875 -0.00261666666667 0.004134375 0.165242
59 1 -0.034846875 -0.00261666666667 0.005315625 0.393162
60 1 -0.034846875 -0.00261666666667 0.006496875 0.389601
61 1 -0.034846875 -0.00261666666667 0.007678125 0.272876
62 1 -0.034846875 -0.00261666666667 0.008859375 0.328571
63 1 -0.034846875 -0.00261666666667 0.010040625 0.324786
64 1 -0.034846875 -0.00261666666667 0.011221875 0.0001
65 1 -0.034846875 -0.00125 -0.011221875 0.0001
66 1 -0.034846875 -0.00125 -0.010040625 0.324786
67 1 -0.034846875 -0.00125 -0.008859375 0.328571
68 1 -0.034846875 -0.00125 -0.007678125 0.272876
69 1 -0.034846875 -0.00125 -0.006496875 0.389601
70 1 -0.034846875 -0.00125 -0.005315625 0.393162
71 1 -0.034846875 -0.00125 -0.004134375 0.165242
72 1 -0.034846875 -0.00125 -0.002953125 0.380342
73 1 -0.034846875 -0.00125 -0.001771875 0.450142
74 1 -0.034846875 -0.00125 -0.000590625 0.581197
75 1 -0.034846875 -0.00125 0.000590625 0.560684
76 1 -0.034846875 -0.00125 0.001771875 0.450142
77 1 -0.034846875 -0.00125 0.002953125 0.380342
78 1 -0.034846875 -0.00125 0.004134375 0.165242
79 1 -0.034846875 -0.00125 0.005315625 0.393162
80 1 -0.034846875 -0.00125 0.006496875 0.389601
81 1 -0.034846875 -0.00125 0.007678125 0.272876
82 1 -0.034846875 -0.00125 0.008859375 0.328571
83 1 -0.034846875 -0.00125 0.010040625 0.324786
84 1 -0.034846875 -0.00125 0.011221875 0.0001
85 1 -0.034846875 0.000116666666667 -0.011221875 0.0001
86 1 -0.034846875 0.000116666666667 -0.010040625 0.324786
87 1 -0.034846875 0.000116666666667 -0.008859375 0.328571
88 1 -0.034846875 0.000116666666667 -0.007678125 0.272876
89 1 -0.034846875 0.000116666666667 -0.006496875 0.389601
90 1 -0.034846875 0.000116666666667 -0.005315625 0.393162
91 1 -0.034846875 0.000116666666667 -0.004134375 0.165242
92 1 -0.034846875 0.000116666666667 -0.002953125 0.380342
93 1 -0.034846875 0.000116666666667 -0.001771875 0.450142
94 1 -0.034846875 0.000116666666667 -0.000590625 0.581197
95 1 -0.034846875 0.000116666666667 0.000590625 0.560684
96 1 -0.034846875 0.000116666666667 0.001771875 0.450142
97 1 -0.034846875 0.000116666666667 0.002953125 0.380342
98 1 -0.034846875 0.000116666666667 0.004134375 0.165242
99 1 -0.034846875 0.000116666666667 0.005315625 0.393162
100 1 -0.034846875 0.000116666666667 0.006496875 0.389601
101 1 -0.034846875 0.000116666666667 0.007678125 0.272876
102 1 -0.034846875 0.000116666666667 0.008859375 0.328571
103 1 -0.034846875 0.000116666666667 0.010040625 0.324786
104 1 -0.034846875 0.000116666666667 0.011221875 0.0001
105 1 -0.033665625 -0.00261666666667 -0.013584375 0.21264
106 1 -0.033665625 -0.00261666666667 -0.012403125 0.296479
107 1 -0.033665625 -0.00261666666667 -0.011221875 0.0128205
108 1 -0.033665625 -0.00261666666667 -0.010040625 0.297721
109 1 -0.033665625 -0.00261666666667 -0.008859375 0.402421
110 1 -0.033665625 -0.00261666666667 -0.007678125 0.20584
111 1 -0.033665625 -0.00261666666667 -0.006496875 0.372151
112 1 -0.033665625 -0.00261666666667 -0.005315625 0.55698
113 1 -0.033665625 -0.00261666666667 -0.004134375 0.457977
114 1 -0.033665625 -0.00261666666667 -0.002953125 0.735043
115 1 -0.033665625 -0.00261666666667 -0.001771875 0.683761
116 1 -0.033665625 -0.00261666666667 -0.000590625 0.551816
117 1 -0.033665625 -0.00261666666667 0.000590625 0.610161
118 1 -0.033665625 -0.00261666666667 0.001771875 0.683761
119 1 -0.033665625 -0.00261666666667 0.002953125 0.735043
120 1 -0.033665625 -0.00261666666667 0.004134375 0.457977
121 1 -0.033665625 -0.00261666666667 0.005315625 0.55698
122 1 -0.033665625 -0.00261666666667 0.006496875 0.372151
123 1 -0.033665625 -0.00261666666667 0.007678125 0.20584
124 1 -0.033665625 -0.00261666666667 0.008859375 0.402421
125 1 -0.033665625 -0.00261666666667 0.010040625 0.297721
126 1 -0.033665625 -0.00261666666667 0.011221875 0.0128205
127 1 -0.033665625 -0.00261666666667 0.012403125 0.296479
128 1 -0.033665625 -0.00261666666667 0.013584375 0.21264
129 1 -0.033665625 -0.00125 -0.013584375 0.21264
130 1 -0.033665625 -0.00125 -0.012403125 0.296479
131 1 -0.033665625 -0.00125 -0.011221875 0.0128205
132 1 -0.033665625 -0.00125 -0.010040625 0.297721
133 1 -0.033665625 -0.00125 -0.008859375 0.402421
134 1 -0.033665625 -0.00125 -0.007678125 0.20584
135 1 -0.033665625 -0.00125 -0.006496875 0.372151
136 1 -0.033665625 -0.00125 -0.005315625 0.55698
137 1 -0.033665625 -0.00125 -0.004134375 0.457977
138 1 -0.033665625 -0.00125 -0.002953125 0.735043
139 1 -0.033665625 -0.00125 -0.001771875 0.683761
140 1 -0.033665625 -0.00125 -0.000590625 0.551816
141 1 -0.033665625 -0.00125 0.000590625 0.610161
142 1 -0.033665625 -0.00125 0.001771875 0.683761
143 1 -0.033665625 -0.00125 0.002953125 0.735043
144 1 -0.033665625 -0.00125 0.004134375 0.457977
145 1 -0.033665625 -0.00125 0.005315625 0.55698
146 1 -0.033665625 -0.00125 0.006496875 0.372151
147 1 -0.033665625 -0.00125 0.007678125 0.20584
148 1 -0.033665625 -0.00125 0.008859375 0.402421
149 1 -0.033665625 -0.00125 0.010040625 0.297721
150 1 -0.033665625 -0.00125 0.011221875 0.0128205
151 1 -0.033665625 -0.00125 0.012403125 0.296479
152 1 -0.033665625 -0.00125 0.013584375 0.21264
153 1 -0.033665625 0.000116666666667 -0.013584375 0.21264
154 1 -0.033665625 0.000116666666667 -0.012403125 0.296479
155 1 -0.033665625 0.000116666666667 -0.011221875 0.0128205
156 1 -0.033665625 0.000116666666667 -0.010040625 0.297721
157 1 -0.033665625 0.000116666666667 -0.008859375 0.402421
158 1 -0.033665625 0.000116666666667 -0.007678125 0.20584
159 1 -0.033665625 0.000116666666667 -0.006496875 0.372151
160 1 -0.033665625 0.000116666666667 -0.005315625 0.55698
161 1 -0.033665625 0.000116666666667 -0.004134375 0.457977
162 1 -0.033665625 0.000116666666667 -0.002953125 0.735043
163 1 -0.033665625 0.000116666666667 -0.001771875 0.683761
164 1 -0.033665625 0.000116666666667 -0.000590625 0.551816
165 1 -0.033665625 0.000116666666667 0.000590625 0.610161
166 1 -0.033665625 0.000116666666667 0.001771875 0.683761
167 1 -0.033665625 0.000116666666667 0.002953125 0.735043
168 1 -0.033665625 0.000116666666667 0.004134375 0.457977
169 1 -0.033665625 0.000116666666667 0.005315625 0.55698
170 1 -0.033665625 0.000116666666667 0.006496875 0.372151
171 1 -0.033665625 0.000116666666667 0.007678125 0.20584
172 1 -0.033665625 0.000116666666667 0.008859375 0.402421
173 1 -0.033665625 0.000116666666667 0.010040625 0.297721
174 1 -0.033665625 0.000116666666667 0.011221875 0.0128205
175 1 -0.033665625 0.000116666666667 0.012403125 0.296479
176 1 -0.033665625 0.000116666666667 0.013584375 0.21264
177 1 -0.032484375 -0.00261666666667 -0.018309375 0.552381
178 1 -0.032484375 -0.00261666666667 -0.017128125 0.361905
179 1 -0.032484375 -0.00261666666667 -0.015946875 0.264706
180 1 -0.032484375 -0.00261666666667 -0.014765625 0.404558
181 1 -0.032484375 -0.00261666666667 -0.013584375 0.465099
182 1 -0.032484375 -0.00261666666667 -0.012403125 0.393162
183 1 -0.032484375 -0.00261666666667 -0.011221875 0.132479
184 1 -0.032484375 -0.00261666666667 -0.010040625 0.45584
185 1 -0.032484375 -0.00261666666667 -0.008859375 0.532764
186 1 -0.032484375 -0.00261666666667 -0.007678125 0.246439
187 1 -0.032484375 -0.00261666666667 -0.006496875 0.472222
188 1 -0.032484375 -0.00261666666667 -0.005315625 0.650997
189 1 -0.032484375 -0.00261666666667 -0.004134375 0.679487
190 1 -0.032484375 -0.00261666666667 -0.002953125 0.753561
191 1 -0.032484375 -0.00261666666667 -0.001771875 0.695157
192 1 -0.032484375 -0.00261666666667 -0.000590625 0.599359
193 1 -0.032484375 -0.00261666666667 0.000590625 0.669231
194 1 -0.032484375 -0.00261666666667 0.001771875 0.695157
195 1 -0.032484375 -0.00261666666667 0.002953125 0.753561
196 1 -0.032484375 -0.00261666666667 0.004134375 0.679487
197 1 -0.032484375 -0.00261666666667 0.005315625 0.650997
198 1 -0.032484375 -0.00261666666667 0.006496875 0.472222
199 1 -0.032484375 -0.00261666666667 0.007678125 0.246439
200 1 -0.032484375 -0.00261666666667 0.008859375 0.532764
201 1 -0.032484375 -0.00261666666667 0.010040625 0.45584
202 1 -0.032484375 -0.00261666666667 0.011221875 0.132479
203 1 -0.032484375 -0.00261666666667 0.012403125 0.393162
204 1 -0.032484375 -0.00261666666667 0.013584375 0.465099
205 1 -0.032484375 -0.00261666666667 0.014765625 0.404558
206 1 -0.032484375 -0.00261666666667 0.015946875 0.264706
207 1 -0.032484375 -0.00261666666667 0.017128125 0.361905
208 1 -0.032484375 -0.00261666666667 0.018309375 0.552381
209 1 -0.032484375 -0.00125 -0.018309375 0.552381
210 1 -0.032484375 -0.00125 -0.017128125 0.361905
211 1 -0.032484375 -0.00125 -0.015946875 0.264706
212 1 -0.032484375 -0.00125 -0.014765625 0.404558
213 1 -0.032484375 -0.00125 -0.013584375 0.465099
214 1 -0.032484375 -0.00125 -0.012403125 0.393162
215 1 -0.032484375 -0.00125 -0.011221875 0.132479
216 1 -0.032484375 -0.00125 -0.010040625 0.45584
217 1 -0.032484375 -0.00125 -0.008859375 0.532764
218 1 -0.032484375 -0.00125 -0.007678125 0.246439
219 1 -0.032484375 -0.00125 -0.006496875 0.472222
220 1 -0.032484375 -0.00125 -0.005315625 0.650997
221 1 -0.032484375 -0.00125 -0.004134375 0.679487
222 1 -0.032484375 -0.00125 -0.002953125 0.753561
223 1 -0.032484375 -0.00125 -0.001771875 0.695157
224 1 -0.032484375 -0.00125 -0.000590625 0.599359
225 1 -0.032484375 -0.00125 0.000590625 0.669231
226 1 -0.032484375 -0.00125 0.001771875 0.695157
227 1 -0.032484375 -0.00125 0.002953125 0.753561
228 1 -0.032484375 -0.00125 0.004134375 0.679487
229 1 -0.032484375 -0.00125 0.005315625 0.650997
230 1 -0.032484375 -0.00125 0.006496875 0.472222
231 1 -0.032484375 -0.00125 0.007678125 0.246439
232 1 -0.032484375 -0.00125 0.008859375 0.532764
233 1 -0.032484375 -0.00125 0.010040625 0.45584
234 1 -0.032484375 -0.00125 0.011221875 0.132479
235 1 -0.032484375 -0.00125 0.012403125 0.393162
236 1 -0.032484375 -0.00125 0.013584375 0.465099
237 1 -0.032484375 -0.00125 0.014765625 0.404558
238 1 -0.032484375 -0.00125 0.015946875 0.264706
239 1 -0.032484375 -0.00125 0.017128125 0.361905
240 1 -0.032484375 -0.00125 0.018309375 0.552381
241 1 -0.032484375 0.000116666666667 -0.018309375 0.552381
242 1 -0.032484375 0.000116666666667 -0.017128125 0.361905
243 1 -0.032484375 0.000116666666667 -0.015946875 0.264706
244 1 -0.032484375 0.000116666666667 -0.014765625 0.404558
245 1 -0.032484375 0.000116666666667 -0.013584375 0.465099
246 1 -0.032484375 0.000116666666667 -0.012403125 0.393162
247 1 -0.032484375 0.000116666666667 -0.011221875 0.132479
248 1 -0.032484375 0.000116666666667 -0.010040625 0.45584
249 1 -0.032484375 0.000116666666667 -0.008859375 0.532764
250 1 -0.032484375 0.000116666666667 -0.007678125 0.246439
251 1 -0.032484375 0.000116666666667 -0.006496875 0.472222
252 1 -0.032484375 0.000116666666667 -0.005315625 0.650997
253 1 -0.032484375 0.000116666666667 -0.004134375 0.679487
254 1 -0.032484375 0.000116666666667 -0.002953125 0.753561
255 1 -0.032484375 0.000116666666667 -0.001771875 0.695157
256 1 -0.032484375 0.000116666666667 -0.000590625 0.599359
257 1 -0.032484375 0.000116666666667 0.000590625 0.669231
258 1 -0.032484375 0.000116666666667 0.001771875 0.695157
259 1 -0.032484375 0.000116666666667 0.002953125 0.753561
260 1 -0.032484375 0.000116666666667 0.004134375 0.679487
261 1 -0.032484375 0.000116666666667 0.005315625 0.650997
262 1 -0.032484375 0.000116666666667 0.006496875 0.472222
263 1 -0.032484375 0.000116666666667 0.007678125 0.246439
264 1 -0.032484375 0.000116666666667 0.008859375 0.532764
265 1 -0.032484375 0.000116666666667 0.010040625 0.45584
266 1 -0.032484375 0.000116666666667 0.011221875 0.132479
267 1 -0.032484375 0.000116666666667 0.012403125 0.393162
268 1 -0.032484375 0.000116666666667 0.013584375 0.465099
269 1 -0.032484375 0.000116666666667 0.014765625 0.404558
270 1 -0.032484375 0.000116666666667 0.015946875 0.264706
271 1 -0.032484375 0.000116666666667 0.017128125 0.361905
272 1 -0.032484375 0.000116666666667 0.018309375 0.552381
273 1 -0.031303125 -0.00261666666667 -0.019490625 0.12381
274 1 -0.031303125 -0.00261666666667 -0.018309375 0.423203
275 1 -0.031303125 -0.00261666666667 -0.017128125 0.38604
276 1 -0.031303125 -0.00261666666667 -0.015946875 0.279202
277 1 -0.031303125 -0.00261666666667 -0.014765625 0.481481
278 1 -0.031303125 -0.00261666666667 -0.013584375 0.632479
279 1 -0.031303125 -0.00261666666667 -0.012403125 0.367521
280 1 -0.031303125 -0.00261666666667 -0.011221875 0.474359
281 1 -0.031303125 -0.00261666666667 -0.010040625 0.61396
282 1 -0.031303125 -0.00261666666667 -0.008859375 0.797721
283 1 -0.031303125 -0.00261666666667 -0.007678125 0.621083
284 1 -0.031303125 -0.00261666666667 -0.006496875 0.722223
285 1 -0.031303125 -0.00261666666667 -0.005315625 0.790598
286 1 -0.031303125 -0.00261666666667 -0.004134375 0.72792
287 1 -0.031303125 -0.00261666666667 -0.002953125 0.54416
288 1 -0.031303125 -0.00261666666667 -0.001771875 0.679487
289 1 -0.031303125 -0.00261666666667 -0.000590625 0.551282
290 1 -0.031303125 -0.00261666666667 0.000590625 0.731482
291 1 -0.031303125 -0.00261666666667 0.001771875 0.679487
292 1 -0.031303125 -0.00261666666667 0.002953125 0.54416
293 1 -0.031303125 -0.00261666666667 0.004134375 0.72792
294 1 -0.031303125 -0.00261666666667 0.005315625 0.790598
295 1 -0.031303125 -0.00261666666667 0.006496875 0.722223
296 1 -0.031303125 -0.00261666666667 0.007678125 0.621083
297 1 -0.031303125 -0.00261666666667 0.008859375 0.797721
298 1 -0.031303125 -0.00261666666667 0.010040625 0.61396
299 1 -0.031303125 -0.00261666666667 0.011221875 0.474359
300 1 -0.031303125 -0.00261666666667 0.012403125 0.367521
301 1 -0.031303125 -0.00261666666667 0.013584375 0.632479
302 1 -0.031303125 -0.00261666666667 0.014765625 0.481481
303 1 -0.031303125 -0.00261666666667 0.015946875 0.279202
304 1 -0.031303125 -0.00261666666667 0.017128125 0.38604
305 1 -0.031303125 -0.00261666666667 0.018309375 0.423203
306 1 -0.031303125 -0.00261666666667 0.019490625 0.12381
307 1 -0.031303125 -0.00125 -0.019490625 0.12381
308 1 -0.031303125 -0.00125 -0.018309375 0.423203
309 1 -0.031303125 -0.00125 -0.017128125 0.38604
310 1 -0.031303125 -0.00125 -0.015946875 0.279202
311 1 -0.031303125 -0.00125 -0.014765625 0.481481
312 1 -0.031303125 -0.00125 -0.013584375 0.632479
313 1 -0.031303125 -0.00125 -0.012403125 0.367521
314 1 -0.031303125 -0.00125 -0.011221875 0.474359
315 1 -0.031303125 -0.00125 -0.010040625 0.61396
316 1 -0.031303125 -0.00125 -0.008859375 0.797721
317 1 -0.031303125 -0.00125 -0.007678125 0.621083
318 1 -0.031303125 -0.00125 -0.006496875 0.722223
319 1 -0.031303125 -0.00125 -0.005315625 0.790598
320 1 -0.031303125 -0.00125 -0.004134375 0.72792
321 1 -0.031303125 -0.00125 -0.002953125 0.54416
322 1 -0.031303125 -0.00125 -0.001771875 0.679487
323 1 -0.031303125 -0.00125 -0.000590625 0.551282
324 1 -0.031303125 -0.00125 0.000590625 0.731482
325 1 -0.031303125 -0.00125 0.001771875 0.679487
326 1 -0.031303125 -0.00125 0.002953125 0.54416
327 1 -0.031303125 -0.00125 0.004134375 0.72792
328 1 -0.031303125 -0.00125 0.005315625 0.790598
329 1 -0.031303125 -0.00125 0.006496875 0.722223
330 1 -0.031303125 -0.00125 0.007678125 0.621083
331 1 -0.031303125 -0.00125 0.008859375 0.797721
332 1 -0.031303125 -0.00125 0.010040625 0.61396
333 1 -0.031303125 -0.00125 0.011221875 0.474359
334 1 -0.031303125 -0.00125 0.012403125 0.367521
335 1 -0.031303125 -0.00125 0.013584375 0.632479
336 1 -0.031303125 -0.00125 0.014765625 0.481481
337 1 -0.031303125 -0.00125 0.015946875 0.279202
338 1 -0.031303125 -0.00125 0.017128125 0.38604
339 1 -0.031303125 -0.00125 0.018309375 0.423203
340 1 -0.031303125 -0.00125 0.019490625 0.12381
341 1 -0.031303125 0.000116666666667 -0.019490625 0.12381
342 1 -0.031303125 0.000116666666667 -0.018309375 0.423203
343 1 -0.031303125 0.000116666666667 -0.017128125 0.38604
344 1 -0.031303125 0.000116666666667 -0.015946875 0.279202
345 1 -0.031303125 0.000116666666667 -0.014765625 0.481481
346 1 -0.031303125 0.000116666666667 -0.013584375 0.632479
347 1 -0.031303125 0.000116666666667 -0.012403125 0.367521
348 1 -0.031303125 0.000116666666667 -0.011221875 0.474359
349 1 -0.031303125 0.000116666666667 -0.010040625 0.61396
350 1 -0.031303125 0.000116666666667 -0.008859375 0.797721
351 1 -0.031303125 0.000116666666667 -0.007678125 0.621083
352 1 -0.031303125 0.000116666666667 -0.006496875 0.722223
353 1 -0.031303125 0.000116666666667 -0.005315625 0.790598
354 1 -0.031303125 0.000116666666667 -0.004134375 0.72792
355 1 -0.031303125 0.000116666666667 -0.002953125 0.54416
356 1 -0.031303125 0.000116666666667 -0.001771875 0.679487
357 1 -0.031303125 0.000116666666667 -0.000590625 0.551282
358 1 -0.031303125 0.000116666666667 0.000590625 0.731482
359 1 -0.031303125 0.000116666666667 0.001771875 0.679487
360 1 -0.031303125 0.000116666666667 0.002953125 0.54416
361 1 -0.031303125 0.000116666666667 0.004134375 0.72792
362 1 -0.031303125 0.000116666666667 0.005315625 0.790598
363 1 -0.031303125 0.000116666666667 0.006496875 0.722223
364 1 -0.031303125 0.000116666666667 0.007678125 0.621083
365 1 -0.031303125 0.000116666666667 0.008859375 0.797721
366 1 -0.031303125 0.000116666666667 0.010040625 0.61396
367 1 -0.031303125 0.000116666666667 0.011221875 0.474359
368 1 -0.031303125 0.000116666666667 0.012403125 0.367521
369 1 -0.031303125 0.000116666666667 0.013584375 0.632479
370 1 -0.031303125 0.000116666666667 0.014765625 0.481481
371 1 -0.031303125 0.000116666666667 0.015946875 0.279202
372 1 -0.031303125 0.000116666666667 0.017128125 0.38604
373 1 -0.031303125 0.000116666666667 0.018309375 0.423203
374 1 -0.031303125 0.000116666666667 0.019490625 0.12381
375 1 -0.030121875 -0.00261666666667 -0.020671875 0.159425
376 1 -0.030121875 -0.00261666666667 -0.019490625 0.190883
377 1 -0.030121875 -0.00261666666667 -0.018309375 0.393162
378 1 -0.030121875 -0.00261666666667 -0.017128125 0.462963
379 1 -0.030121875 -0.00261666666667 -0.015946875 0.349003
380 1 -0.030121875 -0.00261666666667 -0.014765625 0.430199
381 1 -0.030121875 -0.00261666666667 -0.013584375 0.512821
382 1 -0.030121875 -0.00261666666667 -0.012403125 0.683761
383 1 -0.030121875 -0.00261666666667 -0.011221875 0.625356
384 1 -0.030121875 -0.00261666666667 -0.010040625 0.562678
385 1 -0.030121875 -0.00261666666667 -0.008859375 0.621083
386 1 -0.030121875 -0.00261666666667 -0.007678125 0.574074
387 1 -0.030121875 -0.00261666666667 -0.006496875 0.641738
388 1 -0.030121875 -0.00261666666667 -0.005315625 0.539886
389 1 -0.030121875 -0.00261666666667 -0.004134375 0.72792
390 1 -0.030121875 -0.00261666666667 -0.002953125 0.639601
391 1 -0.030121875 -0.00261666666667 -0.001771875 0.639601
392 1 -0.030121875 -0.00261666666667 -0.000590625 0.683761
393 1 -0.030121875 -0.00261666666667 0.000590625 0.760684
394 1 -0.030121875 -0.00261666666667 0.001771875 0.639601
395 1 -0.030121875 -0.00261666666667 0.002953125 0.639601
396 1 -0.030121875 -0.00261666666667 0.004134375 0.72792
397 1 -0.030121875 -0.00261666666667 0.005315625 0.539886
398 1 -0.030121875 -0.00261666666667 0.006496875 0.641738
399 1 -0.030121875 -0.00261666666667 0.007678125 0.574074
400 1 -0.030121875 -0.00261666666667 0.008859375 0.621083
401 1 -0.030121875 -0.00261666666667 0.010040625 0.562678
402 1 -0.030121875 -0.00261666666667 0.011221875 0.625356
403 1 -0.030121875 -0.00261666666667 0.012403125 0.683761
404 1 -0.030121875 -0.00261666666667 0.013584375 0.512821
405 1 -0.030121875 -0.00261666666667 0.014765625 0.430199
406 1 -0.030121875 -0.00261666666667 0.015946875 0.349003
407 1 -0.030121875 -0.00261666666667 0.017128125 0.462963
408 1 -0.030121875 -0.00261666666667 0.018309375 0.393162
409 1 -0.030121875 -0.00261666666667 0.019490625 0.190883
410 1 -0.030121875 -0.00261666666667 0.020671875 0.159425
411 1 -0.030121875 -0.00125 -0.020671875 0.159425
412 1 -0.030121875 -0.00125 -0.019490625 0.190883
413 1 -0.030121875 -0.00125 -0.018309375 0.393162
414 1 -0.030121875 -0.00125 -0.017128125 0.462963
415 1 -0.030121875 -0.00125 -0.015946875 0.349003
416 1 -0.030121875 -0.00125 -0.014765625 0.430199
417 1 -0.030121875 -0.00125 -0.013584375 0.512821
418 1 -0.030121875 -0.00125 -0.012403125 0.683761
419 1 -0.030121875 -0.00125 -0.011221875 0.625356
420 1 -0.030121875 -0.00125 -0.010040625 0.562678
421 1 -0.030121875 -0.00125 -0.008859375 0.621083
422 1 -0.030121875 -0.00125 -0.007678125 0.574074
423 1 -0.030121875 -0.00125 -0.006496875 0.641738
424 1 -0.030121875 -0.00125 -0.005315625 0.539886
425 1 -0.030121875 -0.00125 -0.004134375 0.72792
426 1 -0.030121875 -0.00125 -0.002953125 0.639601
427 1 -0.030121875 -0.00125 -0.001771875 0.639601
428 1 -0.030121875 -0.00125 -0.000590625 0.683761
429 1 -0.030121875 -0.00125 0.000590625 0.760684
430 1 -0.030121875 -0.00125 0.001771875 0.639601
431 1 -0.030121875 -0.00125 0.002953125 0.639601
432 1 -0.030121875 -0.00125 0.004134375 0.72792
433 1 -0.030121875 -0.00125 0.005315625 0.539886
434 1 -0.030121875 -0.00125 0.006496875 0.641738
435 1 -0.030121875 -0.00125 0.007678125 0.574074
436 1 -0.030121875 -0.00125 0.008859375 0.621083
437 1 -0.030121875 -0.00125 0.010040625 0.562678
438 1 -0.030121875 -0.00125 0.011221875 0.625356
439 1 -0.030121875 -0.00125 0.012403125 0.683761
440 1 -0.030121875 -0.00125 0.013584375 0.512821
441 1 -0.030121875 -0.00125 0.014765625 0.430199
442 1 -0.030121875 -0.00125 0.015946875 0.349003
443 1 -0.030121875 -0.00125 0.017128125 0.462963
444 1 -0.030121875 -0.00125 0.018309375 0.393162
445 1 -0.030121875 -0.00125 0.019490625 0.190883
446 1 -0.030121875 -0.00125 0.020671875 0.159425
447 1 -0.030121875 0.000116666666667 -0.020671875 0.159425
448 1 -0.030121875 0.000116666666667 -0.019490625 0.190883
449 1 -0.030121875 0.000116666666667 -0.018309375 0.393162
450 1 -0.030121875 0.000116666666667 -0.017128125 0.462963
451 1 -0.030121875 0.000116666666667 -0.015946875 0.349003
452 1 -0.030121875 0.000116666666667 -0.014765625 0.430199
453 1 -0.030121875 0.000116666666667 -0.013584375 0.512821
454 1 -0.030121875 0.000116666666667 -0.012403125 0.683761
455 1 -0.030121875 0.000116666666667 -0.011221875 0.625356
456 1 -0.030121875 0.000116666666667 -0.010040625 0.562678
457 1 -0.030121875 0.000116666666667 -0.008859375 0.621083
458 1 -0.030121875 0.000116666666667 -0.007678125 0.574074
459 1 -0.030121875 0.000116666666667 -0.006496875 0.641738
460 1 -0.030121875 0.000116666666667 -0.005315625 0.539886
461 1 -0.030121875 0.000116666666667 -0.004134375 0.72792
462 1 -0.030121875 0.000116666666667 -0.002953125 0.639601
463 1 -0.030121875 0.000116666666667 -0.001771875 0.639601
464 1 -0.030121875 0.000116666666667 -0.000590625 0.683761
465 1 -0.030121875 0.000116666666667 0.000590625 0.760684
466 1 -0.030121875 0.000116666666667 0.001771875 0.639601
467 1 -0.030121875 0.000116666666667 0.002953125 0.639601
468 1 -0.030121875 0.000116666666667 0.004134375 0.72792
469 1 -0.030121875 0.000116666666667 0.005315625 0.539886
470 1 -0.030121875 0.000116666666667 0.006496875 0.641738
471 1 -0.030121875 0.000116666666667 0.007678125 0.574074
472 1 -0.030121875 0.000116666666667 0.008859375 0.621083
473 1 -0.030121875 0.000116666666667 0.010040625 0.562678
474 1 -0.030121875 0.000116666666667 0.011221875 0.625356
475 1 -0.030121875 0.000116666666667 0.012403125 0.683761
476 1 -0.030121875 0.000116666666667 0.013584375 0.512821
477 1 -0.030121875 0.000116666666667 0.014765625 0.430199
478 1 -0.030121875 0.000116666666667 0.015946875 0.349003
479 1 -0.030121875 0.000116666666667 0.017128125 0.462963
480 1 -0.030121875 0.000116666666667 0.018309375 0.393162
481 1 -0.030121875 0.000116666666667 0.019490625 0.190883
482 1 -0.030121875 0.000116666666667 0.020671875 0.159425
483 1 -0.028940625 -0.00261666666667 -0.021853125 0.537879
484 1 -0.028940625 -0.00261666666667 -0.020671875 0.278176
485 1 -0.028940625 -0.00261666666667 -0.019490625 0.246439
486 1 -0.028940625 -0.00261666666667 -0.018309375 0.367521
487 1 -0.028940625 -0.00261666666667 -0.017128125 0.650997
488 1 -0.028940625 -0.00261666666667 -0.015946875 0.360399
489 1 -0.028940625 -0.00261666666667 -0.014765625 0.411681
490 1 -0.028940625 -0.00261666666667 -0.013584375 0.595442
491 1 -0.028940625 -0.00261666666667 -0.012403125 0.830484
492 1 -0.028940625 -0.00261666666667 -0.011221875 0.735043
493 1 -0.028940625 -0.00261666666667 -0.010040625 0.595442
494 1 -0.028940625 -0.00261666666667 -0.008859375 0.61396
495 1 -0.028940625 -0.00261666666667 -0.007678125 0.698006
496 1 -0.028940625 -0.00261666666667 -0.006496875 0.4651
497 1 -0.028940625 -0.00261666666667 -0.005315625 0.242165
498 1 -0.028940625 -0.00261666666667 -0.004134375 0.45584
499 1 -0.028940625 -0.00261666666667 -0.002953125 0.723647
500 1 -0.028940625 -0.00261666666667 -0.001771875 0.834758
501 1 -0.028940625 -0.00261666666667 -0.000590625 0.472222
502 1 -0.028940625 -0.00261666666667 0.000590625 0.530769
503 1 -0.028940625 -0.00261666666667 0.001771875 0.834758
504 1 -0.028940625 -0.00261666666667 0.002953125 0.723647
505 1 -0.028940625 -0.00261666666667 0.004134375 0.45584
506 1 -0.028940625 -0.00261666666667 0.005315625 0.242165
507 1 -0.028940625 -0.00261666666667 0.006496875 0.4651
508 1 -0.028940625 -0.00261666666667 0.007678125 0.698006
509 1 -0.028940625 -0.00261666666667 0.008859375 0.61396
510 1 -0.028940625 -0.00261666666667 0.010040625 0.595442
511 1 -0.028940625 -0.00261666666667 0.011221875 0.735043
512 1 -0.028940625 -0.00261666666667 0.012403125 0.830484
513 1 -0.028940625 -0.00261666666667 0.013584375 0.595442
514 1 -0.028940625 -0.00261666666667 0.014765625 0.411681
515 1 -0.028940625 -0.00261666666667 0.015946875 0.360399
516 1 -0.028940625 -0.00261666666667 0.017128125 0.650997
517 1 -0.028940625 -0.00261666666667 0.018309375 0.367521
518 1 -0.028940625 -0.00261666666667 0.019490625 0.246439
519 1 -0.028940625 -0.00261666666667 0.020671875 0.278176
520 1 -0.028940625 -0.00261666666667 0.021853125 0.537879
521 1 -0.028940625 -0.00125 -0.021853125 0.537879
522 1 -0.028940625 -0.00125 -0.020671875 0.278176
523 1 -0.028940625 -0.00125 -0.019490625 0.246439
524 1 -0.028940625 -0.00125 -0.018309375 0.367521
525 1 -0.028940625 -0.00125 -0.017128125 0.650997
526 1 -0.028940625 -0.00125 -0.015946875 0.360399
527 1 -0.028940625 -0.00125 -0.014765625 0.411681
528 1 -0.028940625 -0.00125 -0.013584375 0.595442
529 1 -0.028940625 -0.00125 -0.012403125 0.830484
530 1 -0.028940625 -0.00125 -0.011221875 0.735043
531 1 -0.028940625 -0.00125 -0.010040625 0.595442
532 1 -0.028940625 -0.00125 -0.008859375 0.61396
533 1 -0.028940625 -0.00125 -0.007678125 0.698006
534 1 -0.028940625 -0.00125 -0.006496875 0.4651
535 1 -0.028940625 -0.00125 -0.005315625 0.242165
536 1 -0.028940625 -0.00125 -0.004134375 0.45584
537 1 -0.028940625 -0.00125 -0.002953125 0.723647
538 1 -0.028940625 -0.00125 -0.001771875 0.834758