ITEM: TIMESTEP
0
ITEM: NUMBER OF ATOMS
9240
ITEM: BOX BOUNDS ss ss ss
-3.7007399999999996e-02 3.7007399999999996e-02
-2.0002499999999999e-03 2.5000000000000004e-07
-3.7007399999999996e-02 3.7007399999999996e-02
ITEM: ATOMS id type x y z c_1
0 1 -0.037209375 -0.00261666666667 -0.000590625 0.295238
1 1 -0.037209375 -0.00125 -0.000590625 0.295238
2 1 -0.037209375 0.000116666666667 -0.000590625 0.295238
3 1 -0.036028125 -0.00261666666667 -0.007678125 0.047619
4 1 -0.036028125 -0.00261666666667 -0.006496875 0.0868945
5 1 -0.036028125 -0.00261666666667 -0.005315625 0.037037
6 1 -0.036028125 -0.00261666666667 -0.004134375 0.051282
7 1 -0.036028125 -0.00261666666667 -0.002953125 0.310541
8 1 -0.036028125 -0.00261666666667 -0.001771875 0.435897
9 1 -0.036028125 -0.00261666666667 -0.000590625 0.356683
10 1 -0.036028125 -0.00261666666667 0.000590625 0.714286
11 1 -0.036028125 -0.00261666666667 0.001771875 0.361823
12 1 -0.036028125 -0.00261666666667 0.002953125 0.336182
13 1 -0.036028125 -0.00261666666667 0.004134375 0.424501
14 1 -0.036028125 -0.00261666666667 0.005315625 0.225071
15 1 -0.036028125 -0.00261666666667 0.006496875 0.062678
16 1 -0.036028125 -0.00261666666667 0.007678125 0.128571
17 1 -0.036028125 -0.00125 -0.007678125 0.047619
18 1 -0.036028125 -0.00125 -0.006496875 0.0868945
19 1 -0.036028125 -0.00125 -0.005315625 0.037037
20 1 -0.036028125 -0.00125 -0.004134375 0.051282
21 1 -0.036028125 -0.00125 -0.002953125 0.310541
22 1 -0.036028125 -0.00125 -0.001771875 0.435897
23 1 -0.036028125 -0.00125 -0.000590625 0.356683
24 1 -0.036028125 -0.00125 0.000590625 0.714286
25 1 -0.036028125 -0.00125 0.001771875 0.361823
26 1 -0.036028125 -0.00125 0.002953125 0.336182
27 1 -0.036028125 -0.00125 0.004134375 0.424501
28 1 -0.036028125 -0.00125 0.005315625 0.225071
29 1 -0.036028125 -0.00125 0.006496875 0.062678
30 1 -0.036028125 -0.00125 0.007678125 0.128571
31 1 -0.036028125 0.000116666666667 -0.007678125 0.047619
32 1 -0.036028125 0.000116666666667 -0.006496875 0.0868945
33 1 -0.036028125 0.000116666666667 -0.005315625 0.037037
34 1 -0.036028125 0.000116666666667 -0.004134375 0.051282
35 1 -0.036028125 0.000116666666667 -0.002953125 0.310541
36 1 -0.036028125 0.000116666666667 -0.001771875 0.435897
37 1 -0.036028125 0.000116666666667 -0.000590625 0.356683
38 1 -0.036028125 0.000116666666667 0.000590625 0.714286
39 1 -0.036028125 0.000116666666667 0.001771875 0.361823
40 1 -0.036028125 0.000116666666667 0.002953125 0.336182
41 1 -0.036028125 0.000116666666667 0.004134375 0.424501
42 1 -0.036028125 0.000116666666667 0.005315625 0.225071
43 1 -0.036028125 0.000116666666667 0.006496875 0.062678
44 1 -0.036028125 0.000116666666667 0.007678125 0.128571
45 1 -0.034846875 -0.00261666666667 -0.011221875 0.128571
46 1 -0.034846875 -0.00261666666667 -0.010040625 0.324786
47 1 -0.034846875 -0.00261666666667 -0.008859375 0.295238
48 1 -0.034846875 -0.00261666666667 -0.007678125 0.0833333
49 1 -0.034846875 -0.00261666666667 -0.006496875 0.314102
50 1 -0.034846875 -0.00261666666667 -0.005315625 0.202279
51 1 -0.034846875 -0.00261666666667 -0.004134375 0.27208
52 1 -0.034846875 -0.00261666666667 -0.002953125 0.562678
53 1 -0.034846875 -0.00261666666667 -0.001771875 0.404558
54 1 -0.034846875 -0.00261666666667 -0.000590625 0.425214
55 1 -0.034846875 -0.00261666666667 0.000590625 0.624644
56 1 -0.034846875 -0.00261666666667 0.001771875 0.472222
57 1 -0.034846875 -0.00261666666667 0.002953125 0.4651
58 1 -0.034846875 -0.00261666666667 0.004134375 0.599003
59 1 -0.034846875 -0.00261666666667 0.005315625 0.437322
60 1 -0.034846875 -0.00261666666667 0.006496875 0.372151
61 1 -0.034846875 -0.00261666666667 0.007678125 0.47195
62 1 -0.034846875 -0.00261666666667 0.008859375 0.64825
63 1 -0.034846875 -0.00261666666667 0.010040625 0.387464
64 1 -0.034846875 -0.00261666666667 0.011221875 0.0001
65 1 -0.034846875 -0.00125 -0.011221875 0.128571
66 1 -0.034846875 -0.00125 -0.010040625 0.324786
67 1 -0.034846875 -0.00125 -0.008859375 0.295238
68 1 -0.034846875 -0.00125 -0.007678125 0.0833333
69 1 -0.034846875 -0.00125 -0.006496875 0.314102
70 1 -0.034846875 -0.00125 -0.005315625 0.202279
71 1 -0.034846875 -0.00125 -0.004134375 0.27208
72 1 -0.034846875 -0.00125 -0.002953125 0.562678
73 1 -0.034846875 -0.00125 -0.001771875 0.404558
74 1 -0.034846875 -0.00125 -0.000590625 0.425214
75 1 -0.034846875 -0.00125 0.000590625 0.624644
76 1 -0.034846875 -0.00125 0.001771875 0.472222
77 1 -0.034846875 -0.00125 0.002953125 0.4651
78 1 -0.034846875 -0.00125 0.004134375 0.599003
79 1 -0.034846875 -0.00125 0.005315625 0.437322
80 1 -0.034846875 -0.00125 0.006496875 0.372151
81 1 -0.034846875 -0.00125 0.007678125 0.47195
82 1 -0.034846875 -0.00125 0.008859375 0.64825
83 1 -0.034846875 -0.00125 0.010040625 0.387464
84 1 -0.034846875 -0.00125 0.011221875 0.0001
85 1 -0.034846875 0.000116666666667 -0.011221875 0.128571
86 1 -0.034846875 0.000116666666667 -0.010040625 0.324786
87 1 -0.034846875 0.000116666666667 -0.008859375 0.295238
88 1 -0.034846875 0.000116666666667 -0.007678125 0.0833333
89 1 -0.034846875 0.000116666666667 -0.006496875 0.314102
90 1 -0.034846875 0.000116666666667 -0.005315625 0.202279
91 1 -0.034846875 0.000116666666667 -0.004134375 0.27208
92 1 -0.034846875 0.000116666666667 -0.002953125 0.562678
93 1 -0.034846875 0.000116666666667 -0.001771875 0.404558
94 1 -0.034846875 0.000116666666667 -0.000590625 0.425214
95 1 -0.034846875 0.000116666666667 0.000590625 0.624644
96 1 -0.034846875 0.000116666666667 0.001771875 0.472222
97 1 -0.034846875 0.000116666666667 0.002953125 0.4651
98 1 -0.034846875 0.000116666666667 0.004134375 0.599003
99 1 -0.034846875 0.000116666666667 0.005315625 0.437322
100 1 -0.034846875 0.000116666666667 0.006496875 0.372151
101 1 -0.034846875 0.000116666666667 0.007678125 0.47195
102 1 -0.034846875 0.000116666666667 0.008859375 0.64825
103 1 -0.034846875 0.000116666666667 0.010040625 0.387464
104 1 -0.034846875 0.000116666666667 0.011221875 0.0001
105 1 -0.033665625 -0.00261666666667 -0.013584375 0.0708689
106 1 -0.033665625 -0.00261666666667 -0.012403125 0.212759
107 1 -0.033665625 -0.00261666666667 -0.011221875 0.182881
108 1 -0.033665625 -0.00261666666667 -0.010040625 0.389601
109 1 -0.033665625 -0.00261666666667 -0.008859375 0.415242
110 1 -0.033665625 -0.00261666666667 -0.007678125 0.244302
111 1 -0.033665625 -0.00261666666667 -0.006496875 0.519231
112 1 -0.033665625 -0.00261666666667 -0.005315625 0.55698
113 1 -0.033665625 -0.00261666666667 -0.004134375 0.67094
114 1 -0.033665625 -0.00261666666667 -0.002953125 0.494302
115 1 -0.033665625 -0.00261666666667 -0.001771875 0.383903
116 1 -0.033665625 -0.00261666666667 -0.000590625 0.717949
117 1 -0.033665625 -0.00261666666667 0.000590625 0.693376
118 1 -0.033665625 -0.00261666666667 0.001771875 0.495726
119 1 -0.033665625 -0.00261666666667 0.002953125 0.400285
120 1 -0.033665625 -0.00261666666667 0.004134375 0.565527
121 1 -0.033665625 -0.00261666666667 0.005315625 0.709402
122 1 -0.033665625 -0.00261666666667 0.006496875 0.65812
123 1 -0.033665625 -0.00261666666667 0.007678125 0.425926
124 1 -0.033665625 -0.00261666666667 0.008859375 0.45584
125 1 -0.033665625 -0.00261666666667 0.010040625 0.411681
126 1 -0.033665625 -0.00261666666667 0.011221875 0.204437
127 1 -0.033665625 -0.00261666666667 0.012403125 0.399613
128 1 -0.033665625 -0.00261666666667 0.013584375 0.17932
129 1 -0.033665625 -0.00125 -0.013584375 0.0708689
130 1 -0.033665625 -0.00125 -0.012403125 0.212759
131 1 -0.033665625 -0.00125 -0.011221875 0.182881
132 1 -0.033665625 -0.00125 -0.010040625 0.389601
133 1 -0.033665625 -0.00125 -0.008859375 0.415242
134 1 -0.033665625 -0.00125 -0.007678125 0.244302
135 1 -0.033665625 -0.00125 -0.006496875 0.519231
136 1 -0.033665625 -0.00125 -0.005315625 0.55698
137 1 -0.033665625 -0.00125 -0.004134375 0.67094
138 1 -0.033665625 -0.00125 -0.002953125 0.494302
139 1 -0.033665625 -0.00125 -0.001771875 0.383903
140 1 -0.033665625 -0.00125 -0.000590625 0.717949
141 1 -0.033665625 -0.00125 0.000590625 0.693376
142 1 -0.033665625 -0.00125 0.001771875 0.495726
143 1 -0.033665625 -0.00125 0.002953125 0.400285
144 1 -0.033665625 -0.00125 0.004134375 0.565527
145 1 -0.033665625 -0.00125 0.005315625 0.709402
146 1 -0.033665625 -0.00125 0.006496875 0.65812
147 1 -0.033665625 -0.00125 0.007678125 0.425926
148 1 -0.033665625 -0.00125 0.008859375 0.45584
149 1 -0.033665625 -0.00125 0.010040625 0.411681
150 1 -0.033665625 -0.00125 0.011221875 0.204437
151 1 -0.033665625 -0.00125 0.012403125 0.399613
152 1 -0.033665625 -0.00125 0.013584375 0.17932
153 1 -0.033665625 0.000116666666667 -0.013584375 0.0708689
154 1 -0.033665625 0.000116666666667 -0.012403125 0.212759
155 1 -0.033665625 0.000116666666667 -0.011221875 0.182881
156 1 -0.033665625 0.000116666666667 -0.010040625 0.389601
157 1 -0.033665625 0.000116666666667 -0.008859375 0.415242
158 1 -0.033665625 0.000116666666667 -0.007678125 0.244302
159 1 -0.033665625 0.000116666666667 -0.006496875 0.519231
160 1 -0.033665625 0.000116666666667 -0.005315625 0.55698
161 1 -0.033665625 0.000116666666667 -0.004134375 0.67094
162 1 -0.033665625 0.000116666666667 -0.002953125 0.494302
163 1 -0.033665625 0.000116666666667 -0.001771875 0.383903
164 1 -0.033665625 0.000116666666667 -0.000590625 0.717949
165 1 -0.033665625 0.000116666666667 0.000590625 0.693376
166 1 -0.033665625 0.000116666666667 0.001771875 0.495726
167 1 -0.033665625 0.000116666666667 0.002953125 0.400285
168 1 -0.033665625 0.000116666666667 0.004134375 0.565527
169 1 -0.033665625 0.000116666666667 0.005315625 0.709402
170 1 -0.033665625 0.000116666666667 0.006496875 0.65812
171 1 -0.033665625 0.000116666666667 0.007678125 0.425926
172 1 -0.033665625 0.000116666666667 0.008859375 0.45584
173 1 -0.033665625 0.000116666666667 0.010040625 0.411681
174 1 -0.033665625 0.000116666666667 0.011221875 0.204437
175 1 -0.033665625 0.000116666666667 0.012403125 0.399613
176 1 -0.033665625 0.000116666666667 0.013584375 0.17932
177 1 -0.032484375 -0.00261666666667 -0.018309375 0.242857
178 1 -0.032484375 -0.00261666666667 -0.017128125 0.395238
179 1 -0.032484375 -0.00261666666667 -0.015946875 0.442811
180 1 -0.032484375 -0.00261666666667 -0.014765625 0.437322
181 1 -0.032484375 -0.00261666666667 -0.013584375 0.361823
182 1 -0.032484375 -0.00261666666667 -0.012403125 0.481481
183 1 -0.032484375 -0.00261666666667 -0.011221875 0.411681
184 1 -0.032484375 -0.00261666666667 -0.010040625 0.602564
185 1 -0.032484375 -0.00261666666667 -0.008859375 0.695157
186 1 -0.032484375 -0.00261666666667 -0.007678125 0.514245
187 1 -0.032484375 -0.00261666666667 -0.006496875 0.630342
188 1 -0.032484375 -0.00261666666667 -0.005315625 0.507123
189 1 -0.032484375 -0.00261666666667 -0.004134375 0.757835
190 1 -0.032484375 -0.00261666666667 -0.002953125 0.525641
191 1 -0.032484375 -0.00261666666667 -0.001771875 0.702279
192 1 -0.032484375 -0.00261666666667 -0.000590625 0.700143
193 1 -0.032484375 -0.00261666666667 0.000590625 0.749288
194 1 -0.032484375 -0.00261666666667 0.001771875 0.61396
195 1 -0.032484375 -0.00261666666667 0.002953125 0.437322
196 1 -0.032484375 -0.00261666666667 0.004134375 0.507123
197 1 -0.032484375 -0.00261666666667 0.005315625 0.646724
198 1 -0.032484375 -0.00261666666667 0.006496875 0.746439
199 1 -0.032484375 -0.00261666666667 0.007678125 0.602564
200 1 -0.032484375 -0.00261666666667 0.008859375 0.551282
201 1 -0.032484375 -0.00261666666667 0.010040625 0.54416
202 1 -0.032484375 -0.00261666666667 0.011221875 0.209402
203 1 -0.032484375 -0.00261666666667 0.012403125 0.481481
204 1 -0.032484375 -0.00261666666667 0.013584375 0.395299
205 1 -0.032484375 -0.00261666666667 0.014765625 0.411681
206 1 -0.032484375 -0.00261666666667 0.015946875 0.348039
207 1 -0.032484375 -0.00261666666667 0.017128125 0.304762
208 1 -0.032484375 -0.00261666666667 0.018309375 0.466667
209 1 -0.032484375 -0.00125 -0.018309375 0.242857
210 1 -0.032484375 -0.00125 -0.017128125 0.395238
211 1 -0.032484375 -0.00125 -0.015946875 0.442811
212 1 -0.032484375 -0.00125 -0.014765625 0.437322
213 1 -0.032484375 -0.00125 -0.013584375 0.361823
214 1 -0.032484375 -0.00125 -0.012403125 0.481481
215 1 -0.032484375 -0.00125 -0.011221875 0.411681
216 1 -0.032484375 -0.00125 -0.010040625 0.602564
217 1 -0.032484375 -0.00125 -0.008859375 0.695157
218 1 -0.032484375 -0.00125 -0.007678125 0.514245
219 1 -0.032484375 -0.00125 -0.006496875 0.630342
220 1 -0.032484375 -0.00125 -0.005315625 0.507123
221 1 -0.032484375 -0.00125 -0.004134375 0.757835
222 1 -0.032484375 -0.00125 -0.002953125 0.525641
223 1 -0.032484375 -0.00125 -0.001771875 0.702279
224 1 -0.032484375 -0.00125 -0.000590625 0.700143
225 1 -0.032484375 -0.00125 0.000590625 0.749288
226 1 -0.032484375 -0.00125 0.001771875 0.61396
227 1 -0.032484375 -0.00125 0.002953125 0.437322
228 1 -0.032484375 -0.00125 0.004134375 0.507123
229 1 -0.032484375 -0.00125 0.005315625 0.646724
230 1 -0.032484375 -0.00125 0.006496875 0.746439
231 1 -0.032484375 -0.00125 0.007678125 0.602564
232 1 -0.032484375 -0.00125 0.008859375 0.551282
233 1 -0.032484375 -0.00125 0.010040625 0.54416
234 1 -0.032484375 -0.00125 0.011221875 0.209402
235 1 -0.032484375 -0.00125 0.012403125 0.481481
236 1 -0.032484375 -0.00125 0.013584375 0.395299
237 1 -0.032484375 -0.00125 0.014765625 0.411681
238 1 -0.032484375 -0.00125 0.015946875 0.348039
239 1 -0.032484375 -0.00125 0.017128125 0.304762
240 1 -0.032484375 -0.00125 0.018309375 0.466667
241 1 -0.032484375 0.000116666666667 -0.018309375 0.242857
242 1 -0.032484375 0.000116666666667 -0.017128125 0.395238
243 1 -0.032484375 0.000116666666667 -0.015946875 0.442811
244 1 -0.032484375 0.000116666666667 -0.014765625 0.437322
245 1 -0.032484375 0.000116666666667 -0.013584375 0.361823
246 1 -0.032484375 0.000116666666667 -0.012403125 0.481481
247 1 -0.032484375 0.000116666666667 -0.011221875 0.411681
248 1 -0.032484375 0.000116666666667 -0.010040625 0.602564
249 1 -0.032484375 0.000116666666667 -0.008859375 0.695157
250 1 -0.032484375 0.000116666666667 -0.007678125 0.514245
251 1 -0.032484375 0.000116666666667 -0.006496875 0.630342
252 1 -0.032484375 0.000116666666667 -0.005315625 0.507123
253 1 -0.032484375 0.000116666666667 -0.004134375 0.757835
254 1 -0.032484375 0.000116666666667 -0.002953125 0.525641
255 1 -0.032484375 0.000116666666667 -0.001771875 0.702279
256 1 -0.032484375 0.000116666666667 -0.000590625 0.700143
257 1 -0.032484375 0.000116666666667 0.000590625 0.749288
258 1 -0.032484375 0.000116666666667 0.001771875 0.61396
259 1 -0.032484375 0.000116666666667 0.002953125 0.437322
260 1 -0.032484375 0.000116666666667 0.004134375 0.507123
261 1 -0.032484375 0.000116666666667 0.005315625 0.646724
262 1 -0.032484375 0.000116666666667 0.006496875 0.746439
263 1 -0.032484375 0.000116666666667 0.007678125 0.602564
264 1 -0.032484375 0.000116666666667 0.008859375 0.551282
265 1 -0.032484375 0.000116666666667 0.010040625 0.54416
266 1 -0.032484375 0.000116666666667 0.011221875 0.209402
267 1 -0.032484375 0.000116666666667 0.012403125 0.481481
268 1 -0.032484375 0.000116666666667 0.013584375 0.395299
269 1 -0.032484375 0.000116666666667 0.014765625 0.411681
270 1 -0.032484375 0.000116666666667 0.015946875 0.348039
271 1 -0.032484375 0.000116666666667 0.017128125 0.304762
272 1 -0.032484375 0.000116666666667 0.018309375 0.466667
273 1 -0.031303125 -0.00261666666667 -0.019490625 0.114286
274 1 -0.031303125 -0.00261666666667 -0.018309375 0.348039
275 1 -0.031303125 -0.00261666666667 -0.017128125 0.720798
276 1 -0.031303125 -0.00261666666667 -0.015946875 0.595442
277 1 -0.031303125 -0.00261666666667 -0.014765625 0.646724
278 1 -0.031303125 -0.00261666666667 -0.013584375 0.3198
279 1 -0.031303125 -0.00261666666667 -0.012403125 0.532764
280 1 -0.031303125 -0.00261666666667 -0.011221875 0.532764
281 1 -0.031303125 -0.00261666666667 -0.010040625 0.621083
282 1 -0.031303125 -0.00261666666667 -0.008859375 0.683761
283 1 -0.031303125 -0.00261666666667 -0.007678125 0.525641
284 1 -0.031303125 -0.00261666666667 -0.006496875 0.525641
285 1 -0.031303125 -0.00261666666667 -0.005315625 0.430199
286 1 -0.031303125 -0.00261666666667 -0.004134375 0.742165
287 1 -0.031303125 -0.00261666666667 -0.002953125 0.860399
288 1 -0.031303125 -0.00261666666667 -0.001771875 0.742165
289 1 -0.031303125 -0.00261666666667 -0.000590625 0.625641
290 1 -0.031303125 -0.00261666666667 0.000590625 0.682693
291 1 -0.031303125 -0.00261666666667 0.001771875 0.823362
292 1 -0.031303125 -0.00261666666667 0.002953125 0.720798
293 1 -0.031303125 -0.00261666666667 0.004134375 0.760684
294 1 -0.031303125 -0.00261666666667 0.005315625 0.65812
295 1 -0.031303125 -0.00261666666667 0.006496875 0.538462
296 1 -0.031303125 -0.00261666666667 0.007678125 0.532764
297 1 -0.031303125 -0.00261666666667 0.008859375 0.837607
298 1 -0.031303125 -0.00261666666667 0.010040625 0.760684
299 1 -0.031303125 -0.00261666666667 0.011221875 0.507123
300 1 -0.031303125 -0.00261666666667 0.012403125 0.5
301 1 -0.031303125 -0.00261666666667 0.013584375 0.512821
302 1 -0.031303125 -0.00261666666667 0.014765625 0.411681
303 1 -0.031303125 -0.00261666666667 0.015946875 0.437322
304 1 -0.031303125 -0.00261666666667 0.017128125 0.492877
305 1 -0.031303125 -0.00261666666667 0.018309375 0.423203
306 1 -0.031303125 -0.00261666666667 0.019490625 0.157143
307 1 -0.031303125 -0.00125 -0.019490625 0.114286
308 1 -0.031303125 -0.00125 -0.018309375 0.348039
309 1 -0.031303125 -0.00125 -0.017128125 0.720798
310 1 -0.031303125 -0.00125 -0.015946875 0.595442
311 1 -0.031303125 -0.00125 -0.014765625 0.646724
312 1 -0.031303125 -0.00125 -0.013584375 0.3198
313 1 -0.031303125 -0.00125 -0.012403125 0.532764
314 1 -0.031303125 -0.00125 -0.011221875 0.532764
315 1 -0.031303125 -0.00125 -0.010040625 0.621083
316 1 -0.031303125 -0.00125 -0.008859375 0.683761
317 1 -0.031303125 -0.00125 -0.007678125 0.525641
318 1 -0.031303125 -0.00125 -0.006496875 0.525641
319 1 -0.031303125 -0.00125 -0.005315625 0.430199
320 1 -0.031303125 -0.00125 -0.004134375 0.742165
321 1 -0.031303125 -0.00125 -0.002953125 0.860399
322 1 -0.031303125 -0.00125 -0.001771875 0.742165
323 1 -0.031303125 -0.00125 -0.000590625 0.625641
324 1 -0.031303125 -0.00125 0.000590625 0.682693
325 1 -0.031303125 -0.00125 0.001771875 0.823362
326 1 -0.031303125 -0.00125 0.002953125 0.720798
327 1 -0.031303125 -0.00125 0.004134375 0.760684
328 1 -0.031303125 -0.00125 0.005315625 0.65812
329 1 -0.031303125 -0.00125 0.006496875 0.538462
330 1 -0.031303125 -0.00125 0.007678125 0.532764
331 1 -0.031303125 -0.00125 0.008859375 0.837607
332 1 -0.031303125 -0.00125 0.010040625 0.760684
333 1 -0.031303125 -0.00125 0.011221875 0.507123
334 1 -0.031303125 -0.00125 0.012403125 0.5
335 1 -0.031303125 -0.00125 0.013584375 0.512821
336 1 -0.031303125 -0.00125 0.014765625 0.411681
337 1 -0.031303125 -0.00125 0.015946875 0.437322
338 1 -0.031303125 -0.00125 0.017128125 0.492877
339 1 -0.031303125 -0.00125 0.018309375 0.423203
340 1 -0.031303125 -0.00125 0.019490625 0.157143
341 1 -0.031303125 0.000116666666667 -0.019490625 0.114286
342 1 -0.031303125 0.000116666666667 -0.018309375 0.348039
343 1 -0.031303125 0.000116666666667 -0.017128125 0.720798
344 1 -0.031303125 0.000116666666667 -0.015946875 0.595442
345 1 -0.031303125 0.000116666666667 -0.014765625 0.646724
346 1 -0.031303125 0.000116666666667 -0.013584375 0.3198
347 1 -0.031303125 0.000116666666667 -0.012403125 0.532764
348 1 -0.031303125 0.000116666666667 -0.011221875 0.532764
349 1 -0.031303125 0.000116666666667 -0.010040625 0.621083
350 1 -0.031303125 0.000116666666667 -0.008859375 0.683761
351 1 -0.031303125 0.000116666666667 -0.007678125 0.525641
352 1 -0.031303125 0.000116666666667 -0.006496875 0.525641
353 1 -0.031303125 0.000116666666667 -0.005315625 0.430199
354 1 -0.031303125 0.000116666666667 -0.004134375 0.742165
355 1 -0.031303125 0.000116666666667 -0.002953125 0.860399
356 1 -0.031303125 0.000116666666667 -0.001771875 0.742165
357 1 -0.031303125 0.000116666666667 -0.000590625 0.625641
358 1 -0.031303125 0.000116666666667 0.000590625 0.682693
359 1 -0.031303125 0.000116666666667 0.001771875 0.823362
360 1 -0.031303125 0.000116666666667 0.002953125 0.720798
361 1 -0.031303125 0.000116666666667 0.004134375 0.760684
362 1 -0.031303125 0.000116666666667 0.005315625 0.65812
363 1 -0.031303125 0.000116666666667 0.006496875 0.538462
364 1 -0.031303125 0.000116666666667 0.007678125 0.532764
365 1 -0.031303125 0.000116666666667 0.008859375 0.837607
366 1 -0.031303125 0.000116666666667 0.010040625 0.760684
367 1 -0.031303125 0.000116666666667 0.011221875 0.507123
368 1 -0.031303125 0.000116666666667 0.012403125 0.5
369 1 -0.031303125 0.000116666666667 0.013584375 0.512821
370 1 -0.031303125 0.000116666666667 0.014765625 0.411681
371 1 -0.031303125 0.000116666666667 0.015946875 0.437322
372 1 -0.031303125 0.000116666666667 0.017128125 0.492877
373 1 -0.031303125 0.000116666666667 0.018309375 0.423203
374 1 -0.031303125 0.000116666666667 0.019490625 0.157143
375 1 -0.030121875 -0.00261666666667 -0.020671875 0.541481
376 1 -0.030121875 -0.00261666666667 -0.019490625 0.242165
377 1 -0.030121875 -0.00261666666667 -0.018309375 0.27208
378 1 -0.030121875 -0.00261666666667 -0.017128125 0.628205
379 1 -0.030121875 -0.00261666666667 -0.015946875 0.551282
380 1 -0.030121875 -0.00261666666667 -0.014765625 0.782051
381 1 -0.030121875 -0.00261666666667 -0.013584375 0.444444
382 1 -0.030121875 -0.00261666666667 -0.012403125 0.65812
383 1 -0.030121875 -0.00261666666667 -0.011221875 0.735043
384 1 -0.030121875 -0.00261666666667 -0.010040625 0.68661
385 1 -0.030121875 -0.00261666666667 -0.008859375 0.753561
386 1 -0.030121875 -0.00261666666667 -0.007678125 0.602564
387 1 -0.030121875 -0.00261666666667 -0.006496875 0.5349
388 1 -0.030121875 -0.00261666666667 -0.005315625 0.569801
389 1 -0.030121875 -0.00261666666667 -0.004134375 0.720798
390 1 -0.030121875 -0.00261666666667 -0.002953125 0.702279
391 1 -0.030121875 -0.00261666666667 -0.001771875 0.735043
392 1 -0.030121875 -0.00261666666667 -0.000590625 0.676068
393 1 -0.030121875 -0.00261666666667 0.000590625 0.627137
394 1 -0.030121875 -0.00261666666667 0.001771875 0.595442
395 1 -0.030121875 -0.00261666666667 0.002953125 0.760684
396 1 -0.030121875 -0.00261666666667 0.004134375 0.849003
397 1 -0.030121875 -0.00261666666667 0.005315625 0.683761
398 1 -0.030121875 -0.00261666666667 0.006496875 0.604701
399 1 -0.030121875 -0.00261666666667 0.007678125 0.609687
400 1 -0.030121875 -0.00261666666667 0.008859375 0.84188
401 1 -0.030121875 -0.00261666666667 0.010040625 0.558405
402 1 -0.030121875 -0.00261666666667 0.011221875 0.467236
403 1 -0.030121875 -0.00261666666667 0.012403125 0.749288
404 1 -0.030121875 -0.00261666666667 0.013584375 0.472222
405 1 -0.030121875 -0.00261666666667 0.014765625 0.61396
406 1 -0.030121875 -0.00261666666667 0.015946875 0.790598
407 1 -0.030121875 -0.00261666666667 0.017128125 0.779202
408 1 -0.030121875 -0.00261666666667 0.018309375 0.551282
409 1 -0.030121875 -0.00261666666667 0.019490625 0.235043
410 1 -0.030121875 -0.00261666666667 0.020671875 0.299948
411 1 -0.030121875 -0.00125 -0.020671875 0.541481
412 1 -0.030121875 -0.00125 -0.019490625 0.242165
413 1 -0.030121875 -0.00125 -0.018309375 0.27208
414 1 -0.030121875 -0.00125 -0.017128125 0.628205
415 1 -0.030121875 -0.00125 -0.015946875 0.551282
416 1 -0.030121875 -0.00125 -0.014765625 0.782051
417 1 -0.030121875 -0.00125 -0.013584375 0.444444
418 1 -0.030121875 -0.00125 -0.012403125 0.65812
419 1 -0.030121875 -0.00125 -0.011221875 0.735043
420 1 -0.030121875 -0.00125 -0.010040625 0.68661
421 1 -0.030121875 -0.00125 -0.008859375 0.753561
422 1 -0.030121875 -0.00125 -0.007678125 0.602564
423 1 -0.030121875 -0.00125 -0.006496875 0.5349
424 1 -0.030121875 -0.00125 -0.005315625 0.569801
425 1 -0.030121875 -0.00125 -0.004134375 0.720798
426 1 -0.030121875 -0.00125 -0.002953125 0.702279
427 1 -0.030121875 -0.00125 -0.001771875 0.735043
428 1 -0.030121875 -0.00125 -0.000590625 0.676068
429 1 -0.030121875 -0.00125 0.000590625 0.627137
430 1 -0.030121875 -0.00125 0.001771875 0.595442
431 1 -0.030121875 -0.00125 0.002953125 0.760684
432 1 -0.030121875 -0.00125 0.004134375 0.849003
433 1 -0.030121875 -0.00125 0.005315625 0.683761
434 1 -0.030121875 -0.00125 0.006496875 0.604701
435 1 -0.030121875 -0.00125 0.007678125 0.609687
436 1 -0.030121875 -0.00125 0.008859375 0.84188
437 1 -0.030121875 -0.00125 0.010040625 0.558405
438 1 -0.030121875 -0.00125 0.011221875 0.467236
439 1 -0.030121875 -0.00125 0.012403125 0.749288
440 1 -0.030121875 -0.00125 0.013584375 0.472222
441 1 -0.030121875 -0.00125 0.014765625 0.61396
442 1 -0.030121875 -0.00125 0.015946875 0.790598
443 1 -0.030121875 -0.00125 0.017128125 0.779202
444 1 -0.030121875 -0.00125 0.018309375 0.551282
445 1 -0.030121875 -0.00125 0.019490625 0.235043
446 1 -0.030121875 -0.00125 0.020671875 0.299948
447 1 -0.030121875 0.000116666666667 -0.020671875 0.541481
448 1 -0.030121875 0.000116666666667 -0.019490625 0.242165
449 1 -0.030121875 0.000116666666667 -0.018309375 0.27208
450 1 -0.030121875 0.000116666666667 -0.017128125 0.628205
451 1 -0.030121875 0.000116666666667 -0.015946875 0.551282
452 1 -0.030121875 0.000116666666667 -0.014765625 0.782051
453 1 -0.030121875 0.000116666666667 -0.013584375 0.444444
454 1 -0.030121875 0.000116666666667 -0.012403125 0.65812
455 1 -0.030121875 0.000116666666667 -0.011221875 0.735043
456 1 -0.030121875 0.000116666666667 -0.010040625 0.68661
457 1 -0.030121875 0.000116666666667 -0.008859375 0.753561
458 1 -0.030121875 0.000116666666667 -0.007678125 0.602564
459 1 -0.030121875 0.000116666666667 -0.006496875 0.5349
460 1 -0.030121875 0.000116666666667 -0.005315625 0.569801
461 1 -0.030121875 0.000116666666667 -0.004134375 0.720798
462 1 -0.030121875 0.000116666666667 -0.002953125 0.702279
463 1 -0.030121875 0.000116666666667 -0.001771875 0.735043
464 1 -0.030121875 0.000116666666667 -0.000590625 0.676068
465 1 -0.030121875 0.000116666666667 0.000590625 0.627137
466 1 -0.030121875 0.000116666666667 0.001771875 0.595442
467 1 -0.030121875 0.000116666666667 0.002953125 0.760684
468 1 -0.030121875 0.000116666666667 0.004134375 0.849003
469 1 -0.030121875 0.000116666666667 0.005315625 0.683761
470 1 -0.030121875 0.000116666666667 0.006496875 0.604701
471 1 -0.030121875 0.000116666666667 0.007678125 0.609687
472 1 -0.030121875 0.000116666666667 0.008859375 0.84188
473 1 -0.030121875 0.000116666666667 0.010040625 0.558405
474 1 -0.030121875 0.000116666666667 0.011221875 0.467236
475 1 -0.030121875 0.000116666666667 0.012403125 0.749288
476 1 -0.030121875 0.000116666666667 0.013584375 0.472222
477 1 -0.030121875 0.000116666666667 0.014765625 0.61396
478 1 -0.030121875 0.000116666666667 0.015946875 0.790598
479 1 -0.030121875 0.000116666666667 0.017128125 0.779202
480 1 -0.030121875 0.000116666666667 0.018309375 0.551282
481 1 -0.030121875 0.000116666666667 0.019490625 0.235043
482 1 -0.030121875 0.000116666666667 0.020671875 0.299948
483 1 -0.028940625 -0.00261666666667 -0.021853125 0.371212
484 1 -0.028940625 -0.00261666666667 -0.020671875 0.398735
485 1 -0.028940625 -0.00261666666667 -0.019490625 0.367521
486 1 -0.028940625 -0.00261666666667 -0.018309375 0.279202
487 1 -0.028940625 -0.00261666666667 -0.017128125 0.45584
488 1 -0.028940625 -0.00261666666667 -0.015946875 0.690883
489 1 -0.028940625 -0.00261666666667 -0.014765625 0.474359
490 1 -0.028940625 -0.00261666666667 -0.013584375 0.437322
491 1 -0.028940625 -0.00261666666667 -0.012403125 0.525641
492 1 -0.028940625 -0.00261666666667 -0.011221875 0.720798
493 1 -0.028940625 -0.00261666666667 -0.010040625 0.720798
494 1 -0.028940625 -0.00261666666667 -0.008859375 0.646724
495 1 -0.028940625 -0.00261666666667 -0.007678125 0.569801
496 1 -0.028940625 -0.00261666666667 -0.006496875 0.782764
497 1 -0.028940625 -0.00261666666667 -0.005315625 0.621083
498 1 -0.028940625 -0.00261666666667 -0.004134375 0.514245
499 1 -0.028940625 -0.00261666666667 -0.002953125 0.735043
500 1 -0.028940625 -0.00261666666667 -0.001771875 0.735043
501 1 -0.028940625 -0.00261666666667 -0.000590625 0.591881
502 1 -0.028940625 -0.00261666666667 0.000590625 0.525641
503 1 -0.028940625 -0.00261666666667 0.001771875 0.54416
504 1 -0.028940625 -0.00261666666667 0.002953125 0.492877
505 1 -0.028940625 -0.00261666666667 0.004134375 0.635328
506 1 -0.028940625 -0.00261666666667 0.005315625 0.492877
507 1 -0.028940625 -0.00261666666667 0.006496875 0.602564
508 1 -0.028940625 -0.00261666666667 0.007678125 0.77208
509 1 -0.028940625 -0.00261666666667 0.008859375 0.683761
510 1 -0.028940625 -0.00261666666667 0.010040625 0.77208
511 1 -0.028940625 -0.00261666666667 0.011221875 0.444444
512 1 -0.028940625 -0.00261666666667 0.012403125 0.562678
513 1 -0.028940625 -0.00261666666667 0.013584375 0.413818
514 1 -0.028940625 -0.00261666666667 0.014765625 0.695157
515 1 -0.028940625 -0.00261666666667 0.015946875 0.507123
516 1 -0.028940625 -0.00261666666667 0.017128125 0.518519
517 1 -0.028940625 -0.00261666666667 0.018309375 0.488604
518 1 -0.028940625 -0.00261666666667 0.019490625 0.425926
519 1 -0.028940625 -0.00261666666667 0.020671875 0.304697
520 1 -0.028940625 -0.00261666666667 0.021853125 0.412879
521 1 -0.028940625 -0.00125 -0.021853125 0.371212
522 1 -0.028940625 -0.00125 -0.020671875 0.398735
523 1 -0.028940625 -0.00125 -0.019490625 0.367521
524 1 -0.028940625 -0.00125 -0.018309375 0.279202
525 1 -0.028940625 -0.00125 -0.017128125 0.45584
526 1 -0.028940625 -0.00125 -0.015946875 0.690883
527 1 -0.028940625 -0.00125 -0.014765625 0.474359
528 1 -0.028940625 -0.00125 -0.013584375 0.437322
529 1 -0.028940625 -0.00125 -0.012403125 0.525641
530 1 -0.028940625 -0.00125 -0.011221875 0.720798
531 1 -0.028940625 -0.00125 -0.010040625 0.720798
532 1 -0.028940625 -0.00125 -0.008859375 0.646724
533 1 -0.028940625 -0.00125 -0.007678125 0.569801
534 1 -0.028940625 -0.00125 -0.006496875 0.782764
535 1 -0.028940625 -0.00125 -0.005315625 0.621083
536 1 -0.028940625 -0.00125 -0.004134375 0.514245
537 1 -0.028940625 -0.00125 -0.002953125 0.735043
538 1 -0.028940625 -0.00125 -0.001771875 0.735043