ITEM: TIMESTEP
0
ITEM: NUMBER OF ATOMS
9240
ITEM: BOX BOUNDS ss ss ss
-3.7007399999999996e-02 3.7007399999999996e-02
-2.0002499999999999e-03 2.5000000000000004e-07
-3.7007399999999996e-02 3.7007399999999996e-02
ITEM: ATOMS id type x y z c_1
0 1 -0.037209375 -0.00261666666667 -0.000590625 1.0
1 1 -0.037209375 -0.00125 -0.000590625 1.0
2 1 -0.037209375 0.000116666666667 -0.000590625 1.0
3 1 -0.036028125 -0.00261666666667 -0.007678125 0.0001
4 1 -0.036028125 -0.00261666666667 -0.006496875 0.0001
5 1 -0.036028125 -0.00261666666667 -0.005315625 0.0001
6 1 -0.036028125 -0.00261666666667 -0.004134375 0.0001
7 1 -0.036028125 -0.00261666666667 -0.002953125 0.0001
8 1 -0.036028125 -0.00261666666667 -0.001771875 0.0001
9 1 -0.036028125 -0.00261666666667 -0.000590625 0.0904762
10 1 -0.036028125 -0.00261666666667 0.000590625 0.3046
11 1 -0.036028125 -0.00261666666667 0.001771875 0.287749
12 1 -0.036028125 -0.00261666666667 0.002953125 0.099715
13 1 -0.036028125 -0.00261666666667 0.004134375 0.0001
14 1 -0.036028125 -0.00261666666667 0.005315625 0.062678
15 1 -0.036028125 -0.00261666666667 0.006496875 0.0001
16 1 -0.036028125 -0.00261666666667 0.007678125 0.047619
17 1 -0.036028125 -0.00125 -0.007678125 0.0001
18 1 -0.036028125 -0.00125 -0.006496875 0.0001
19 1 -0.036028125 -0.00125 -0.005315625 0.0001
20 1 -0.036028125 -0.00125 -0.004134375 0.0001
21 1 -0.036028125 -0.00125 -0.002953125 0.0001
22 1 -0.036028125 -0.00125 -0.001771875 0.0001
23 1 -0.036028125 -0.00125 -0.000590625 0.0904762
24 1 -0.036028125 -0.00125 0.000590625 0.3046
25 1 -0.036028125 -0.00125 0.001771875 0.287749
26 1 -0.036028125 -0.00125 0.002953125 0.099715
27 1 -0.036028125 -0.00125 0.004134375 0.0001
28 1 -0.036028125 -0.00125 0.005315625 0.062678
29 1 -0.036028125 -0.00125 0.006496875 0.0001
30 1 -0.036028125 -0.00125 0.007678125 0.047619
31 1 -0.036028125 0.000116666666667 -0.007678125 0.0001
32 1 -0.036028125 0.000116666666667 -0.006496875 0.0001
33 1 -0.036028125 0.000116666666667 -0.005315625 0.0001
34 1 -0.036028125 0.000116666666667 -0.004134375 0.0001
35 1 -0.036028125 0.000116666666667 -0.002953125 0.0001
36 1 -0.036028125 0.000116666666667 -0.001771875 0.0001
37 1 -0.036028125 0.000116666666667 -0.000590625 0.0904762
38 1 -0.036028125 0.000116666666667 0.000590625 0.3046
39 1 -0.036028125 0.000116666666667 0.001771875 0.287749
40 1 -0.036028125 0.000116666666667 0.002953125 0.099715
41 1 -0.036028125 0.000116666666667 0.004134375 0.0001
42 1 -0.036028125 0.000116666666667 0.005315625 0.062678
43 1 -0.036028125 0.000116666666667 0.006496875 0.0001
44 1 -0.036028125 0.000116666666667 0.007678125 0.047619
45 1 -0.034846875 -0.00261666666667 -0.011221875 0.238095
46 1 -0.034846875 -0.00261666666667 -0.010040625 0.025641
47 1 -0.034846875 -0.00261666666667 -0.008859375 0.0001
48 1 -0.034846875 -0.00261666666667 -0.007678125 0.0001
49 1 -0.034846875 -0.00261666666667 -0.006496875 0.0001
50 1 -0.034846875 -0.00261666666667 -0.005315625 0.0128205
51 1 -0.034846875 -0.00261666666667 -0.004134375 0.025641
52 1 -0.034846875 -0.00261666666667 -0.002953125 0.0001
53 1 -0.034846875 -0.00261666666667 -0.001771875 0.0001
54 1 -0.034846875 -0.00261666666667 -0.000590625 0.025641
55 1 -0.034846875 -0.00261666666667 0.000590625 0.3198
56 1 -0.034846875 -0.00261666666667 0.001771875 0.253561
57 1 -0.034846875 -0.00261666666667 0.002953125 0.0698005
58 1 -0.034846875 -0.00261666666667 0.004134375 0.0001
59 1 -0.034846875 -0.00261666666667 0.005315625 0.0698006
60 1 -0.034846875 -0.00261666666667 0.006496875 0.0441596
61 1 -0.034846875 -0.00261666666667 0.007678125 0.0128205
62 1 -0.034846875 -0.00261666666667 0.008859375 0.0904762
63 1 -0.034846875 -0.00261666666667 0.010040625 0.099715
64 1 -0.034846875 -0.00261666666667 0.011221875 0.161905
65 1 -0.034846875 -0.00125 -0.011221875 0.238095
66 1 -0.034846875 -0.00125 -0.010040625 0.025641
67 1 -0.034846875 -0.00125 -0.008859375 0.0001
68 1 -0.034846875 -0.00125 -0.007678125 0.0001
69 1 -0.034846875 -0.00125 -0.006496875 0.0001
70 1 -0.034846875 -0.00125 -0.005315625 0.0128205
71 1 -0.034846875 -0.00125 -0.004134375 0.025641
72 1 -0.034846875 -0.00125 -0.002953125 0.0001
73 1 -0.034846875 -0.00125 -0.001771875 0.0001
74 1 -0.034846875 -0.00125 -0.000590625 0.025641
75 1 -0.034846875 -0.00125 0.000590625 0.3198
76 1 -0.034846875 -0.00125 0.001771875 0.253561
77 1 -0.034846875 -0.00125 0.002953125 0.0698005
78 1 -0.034846875 -0.00125 0.004134375 0.0001
79 1 -0.034846875 -0.00125 0.005315625 0.0698006
80 1 -0.034846875 -0.00125 0.006496875 0.0441596
81 1 -0.034846875 -0.00125 0.007678125 0.0128205
82 1 -0.034846875 -0.00125 0.008859375 0.0904762
83 1 -0.034846875 -0.00125 0.010040625 0.099715
84 1 -0.034846875 -0.00125 0.011221875 0.161905
85 1 -0.034846875 0.000116666666667 -0.011221875 0.238095
86 1 -0.034846875 0.000116666666667 -0.010040625 0.025641
87 1 -0.034846875 0.000116666666667 -0.008859375 0.0001
88 1 -0.034846875 0.000116666666667 -0.007678125 0.0001
89 1 -0.034846875 0.000116666666667 -0.006496875 0.0001
90 1 -0.034846875 0.000116666666667 -0.005315625 0.0128205
91 1 -0.034846875 0.000116666666667 -0.004134375 0.025641
92 1 -0.034846875 0.000116666666667 -0.002953125 0.0001
93 1 -0.034846875 0.000116666666667 -0.001771875 0.0001
94 1 -0.034846875 0.000116666666667 -0.000590625 0.025641
95 1 -0.034846875 0.000116666666667 0.000590625 0.3198
96 1 -0.034846875 0.000116666666667 0.001771875 0.253561
97 1 -0.034846875 0.000116666666667 0.002953125 0.0698005
98 1 -0.034846875 0.000116666666667 0.004134375 0.0001
99 1 -0.034846875 0.000116666666667 0.005315625 0.0698006
100 1 -0.034846875 0.000116666666667 0.006496875 0.0441596
101 1 -0.034846875 0.000116666666667 0.007678125 0.0128205
102 1 -0.034846875 0.000116666666667 0.008859375 0.0904762
103 1 -0.034846875 0.000116666666667 0.010040625 0.099715
104 1 -0.034846875 0.000116666666667 0.011221875 0.161905
105 1 -0.033665625 -0.00261666666667 -0.013584375 0.336485
106 1 -0.033665625 -0.00261666666667 -0.012403125 0.335511
107 1 -0.033665625 -0.00261666666667 -0.011221875 0.0945617
108 1 -0.033665625 -0.00261666666667 -0.010040625 0.152422
109 1 -0.033665625 -0.00261666666667 -0.008859375 0.152422
110 1 -0.033665625 -0.00261666666667 -0.007678125 0.0569801
111 1 -0.033665625 -0.00261666666667 -0.006496875 0.00854701
112 1 -0.033665625 -0.00261666666667 -0.005315625 0.017094
113 1 -0.033665625 -0.00261666666667 -0.004134375 0.0954416
114 1 -0.033665625 -0.00261666666667 -0.002953125 0.126781
115 1 -0.033665625 -0.00261666666667 -0.001771875 0.253561
116 1 -0.033665625 -0.00261666666667 -0.000590625 0.301282
117 1 -0.033665625 -0.00261666666667 0.000590625 0.416311
118 1 -0.033665625 -0.00261666666667 0.001771875 0.126781
119 1 -0.033665625 -0.00261666666667 0.002953125 0.108262
120 1 -0.033665625 -0.00261666666667 0.004134375 0.025641
121 1 -0.033665625 -0.00261666666667 0.005315625 0.139601
122 1 -0.033665625 -0.00261666666667 0.006496875 0.15812
123 1 -0.033665625 -0.00261666666667 0.007678125 0.025641
124 1 -0.033665625 -0.00261666666667 0.008859375 0.209402
125 1 -0.033665625 -0.00261666666667 0.010040625 0.246439
126 1 -0.033665625 -0.00261666666667 0.011221875 0.142157
127 1 -0.033665625 -0.00261666666667 0.012403125 0.0904762
128 1 -0.033665625 -0.00261666666667 0.013584375 0.0642857
129 1 -0.033665625 -0.00125 -0.013584375 0.336485
130 1 -0.033665625 -0.00125 -0.012403125 0.335511
131 1 -0.033665625 -0.00125 -0.011221875 0.0945617
132 1 -0.033665625 -0.00125 -0.010040625 0.152422
133 1 -0.033665625 -0.00125 -0.008859375 0.152422
134 1 -0.033665625 -0.00125 -0.007678125 0.0569801
135 1 -0.033665625 -0.00125 -0.006496875 0.00854701
136 1 -0.033665625 -0.00125 -0.005315625 0.017094
137 1 -0.033665625 -0.00125 -0.004134375 0.0954416
138 1 -0.033665625 -0.00125 -0.002953125 0.126781
139 1 -0.033665625 -0.00125 -0.001771875 0.253561
140 1 -0.033665625 -0.00125 -0.000590625 0.301282
141 1 -0.033665625 -0.00125 0.000590625 0.416311
142 1 -0.033665625 -0.00125 0.001771875 0.126781
143 1 -0.033665625 -0.00125 0.002953125 0.108262
144 1 -0.033665625 -0.00125 0.004134375 0.025641
145 1 -0.033665625 -0.00125 0.005315625 0.139601
146 1 -0.033665625 -0.00125 0.006496875 0.15812
147 1 -0.033665625 -0.00125 0.007678125 0.025641
148 1 -0.033665625 -0.00125 0.008859375 0.209402
149 1 -0.033665625 -0.00125 0.010040625 0.246439
150 1 -0.033665625 -0.00125 0.011221875 0.142157
151 1 -0.033665625 -0.00125 0.012403125 0.0904762
152 1 -0.033665625 -0.00125 0.013584375 0.0642857
153 1 -0.033665625 0.000116666666667 -0.013584375 0.336485
154 1 -0.033665625 0.000116666666667 -0.012403125 0.335511
155 1 -0.033665625 0.000116666666667 -0.011221875 0.0945617
156 1 -0.033665625 0.000116666666667 -0.010040625 0.152422
157 1 -0.033665625 0.000116666666667 -0.008859375 0.152422
158 1 -0.033665625 0.000116666666667 -0.007678125 0.0569801
159 1 -0.033665625 0.000116666666667 -0.006496875 0.00854701
160 1 -0.033665625 0.000116666666667 -0.005315625 0.017094
161 1 -0.033665625 0.000116666666667 -0.004134375 0.0954416
162 1 -0.033665625 0.000116666666667 -0.002953125 0.126781
163 1 -0.033665625 0.000116666666667 -0.001771875 0.253561
164 1 -0.033665625 0.000116666666667 -0.000590625 0.301282
165 1 -0.033665625 0.000116666666667 0.000590625 0.416311
166 1 -0.033665625 0.000116666666667 0.001771875 0.126781
167 1 -0.033665625 0.000116666666667 0.002953125 0.108262
168 1 -0.033665625 0.000116666666667 0.004134375 0.025641
169 1 -0.033665625 0.000116666666667 0.005315625 0.139601
170 1 -0.033665625 0.000116666666667 0.006496875 0.15812
171 1 -0.033665625 0.000116666666667 0.007678125 0.025641
172 1 -0.033665625 0.000116666666667 0.008859375 0.209402
173 1 -0.033665625 0.000116666666667 0.010040625 0.246439
174 1 -0.033665625 0.000116666666667 0.011221875 0.142157
175 1 -0.033665625 0.000116666666667 0.012403125 0.0904762
176 1 -0.033665625 0.000116666666667 0.013584375 0.0642857
177 1 -0.032484375 -0.00261666666667 -0.018309375 0.838095
178 1 -0.032484375 -0.00261666666667 -0.017128125 0.804762
179 1 -0.032484375 -0.00261666666667 -0.015946875 0.415033
180 1 -0.032484375 -0.00261666666667 -0.014765625 0.334758
181 1 -0.032484375 -0.00261666666667 -0.013584375 0.474359
182 1 -0.032484375 -0.00261666666667 -0.012403125 0.481481
183 1 -0.032484375 -0.00261666666667 -0.011221875 0.235043
184 1 -0.032484375 -0.00261666666667 -0.010040625 0.367521
185 1 -0.032484375 -0.00261666666667 -0.008859375 0.38604
186 1 -0.032484375 -0.00261666666667 -0.007678125 0.190883
187 1 -0.032484375 -0.00261666666667 -0.006496875 0.130342
188 1 -0.032484375 -0.00261666666667 -0.005315625 0.0954416
189 1 -0.032484375 -0.00261666666667 -0.004134375 0.323362
190 1 -0.032484375 -0.00261666666667 -0.002953125 0.653846
191 1 -0.032484375 -0.00261666666667 -0.001771875 0.702279
192 1 -0.032484375 -0.00261666666667 -0.000590625 0.72792
193 1 -0.032484375 -0.00261666666667 0.000590625 0.652422
194 1 -0.032484375 -0.00261666666667 0.001771875 0.437322
195 1 -0.032484375 -0.00261666666667 0.002953125 0.537037
196 1 -0.032484375 -0.00261666666667 0.004134375 0.326923
197 1 -0.032484375 -0.00261666666667 0.005315625 0.430199
198 1 -0.032484375 -0.00261666666667 0.006496875 0.301282
199 1 -0.032484375 -0.00261666666667 0.007678125 0.204772
200 1 -0.032484375 -0.00261666666667 0.008859375 0.409544
201 1 -0.032484375 -0.00261666666667 0.010040625 0.225784
202 1 -0.032484375 -0.00261666666667 0.011221875 0.0605413
203 1 -0.032484375 -0.00261666666667 0.012403125 0.0001
204 1 -0.032484375 -0.00261666666667 0.013584375 0.0128205
205 1 -0.032484375 -0.00261666666667 0.014765625 0.0673179
206 1 -0.032484375 -0.00261666666667 0.015946875 0.0138889
207 1 -0.032484375 -0.00261666666667 0.017128125 0.0001
208 1 -0.032484375 -0.00261666666667 0.018309375 0.0809523
209 1 -0.032484375 -0.00125 -0.018309375 0.838095
210 1 -0.032484375 -0.00125 -0.017128125 0.804762
211 1 -0.032484375 -0.00125 -0.015946875 0.415033
212 1 -0.032484375 -0.00125 -0.014765625 0.334758
213 1 -0.032484375 -0.00125 -0.013584375 0.474359
214 1 -0.032484375 -0.00125 -0.012403125 0.481481
215 1 -0.032484375 -0.00125 -0.011221875 0.235043
216 1 -0.032484375 -0.00125 -0.010040625 0.367521
217 1 -0.032484375 -0.00125 -0.008859375 0.38604
218 1 -0.032484375 -0.00125 -0.007678125 0.190883
219 1 -0.032484375 -0.00125 -0.006496875 0.130342
220 1 -0.032484375 -0.00125 -0.005315625 0.0954416
221 1 -0.032484375 -0.00125 -0.004134375 0.323362
222 1 -0.032484375 -0.00125 -0.002953125 0.653846
223 1 -0.032484375 -0.00125 -0.001771875 0.702279
224 1 -0.032484375 -0.00125 -0.000590625 0.72792
225 1 -0.032484375 -0.00125 0.000590625 0.652422
226 1 -0.032484375 -0.00125 0.001771875 0.437322
227 1 -0.032484375 -0.00125 0.002953125 0.537037
228 1 -0.032484375 -0.00125 0.004134375 0.326923
229 1 -0.032484375 -0.00125 0.005315625 0.430199
230 1 -0.032484375 -0.00125 0.006496875 0.301282
231 1 -0.032484375 -0.00125 0.007678125 0.204772
232 1 -0.032484375 -0.00125 0.008859375 0.409544
233 1 -0.032484375 -0.00125 0.010040625 0.225784
234 1 -0.032484375 -0.00125 0.011221875 0.0605413
235 1 -0.032484375 -0.00125 0.012403125 0.0001
236 1 -0.032484375 -0.00125 0.013584375 0.0128205
237 1 -0.032484375 -0.00125 0.014765625 0.0673179
238 1 -0.032484375 -0.00125 0.015946875 0.0138889
239 1 -0.032484375 -0.00125 0.017128125 0.0001
240 1 -0.032484375 -0.00125 0.018309375 0.0809523
241 1 -0.032484375 0.000116666666667 -0.018309375 0.838095
242 1 -0.032484375 0.000116666666667 -0.017128125 0.804762
243 1 -0.032484375 0.000116666666667 -0.015946875 0.415033
244 1 -0.032484375 0.000116666666667 -0.014765625 0.334758
245 1 -0.032484375 0.000116666666667 -0.013584375 0.474359
246 1 -0.032484375 0.000116666666667 -0.012403125 0.481481
247 1 -0.032484375 0.000116666666667 -0.011221875 0.235043
248 1 -0.032484375 0.000116666666667 -0.010040625 0.367521
249 1 -0.032484375 0.000116666666667 -0.008859375 0.38604
250 1 -0.032484375 0.000116666666667 -0.007678125 0.190883
251 1 -0.032484375 0.000116666666667 -0.006496875 0.130342
252 1 -0.032484375 0.000116666666667 -0.005315625 0.0954416
253 1 -0.032484375 0.000116666666667 -0.004134375 0.323362
254 1 -0.032484375 0.000116666666667 -0.002953125 0.653846
255 1 -0.032484375 0.000116666666667 -0.001771875 0.702279
256 1 -0.032484375 0.000116666666667 -0.000590625 0.72792
257 1 -0.032484375 0.000116666666667 0.000590625 0.652422
258 1 -0.032484375 0.000116666666667 0.001771875 0.437322
259 1 -0.032484375 0.000116666666667 0.002953125 0.537037
260 1 -0.032484375 0.000116666666667 0.004134375 0.326923
261 1 -0.032484375 0.000116666666667 0.005315625 0.430199
262 1 -0.032484375 0.000116666666667 0.006496875 0.301282
263 1 -0.032484375 0.000116666666667 0.007678125 0.204772
264 1 -0.032484375 0.000116666666667 0.008859375 0.409544
265 1 -0.032484375 0.000116666666667 0.010040625 0.225784
266 1 -0.032484375 0.000116666666667 0.011221875 0.0605413
267 1 -0.032484375 0.000116666666667 0.012403125 0.0001
268 1 -0.032484375 0.000116666666667 0.013584375 0.0128205
269 1 -0.032484375 0.000116666666667 0.014765625 0.0673179
270 1 -0.032484375 0.000116666666667 0.015946875 0.0138889
271 1 -0.032484375 0.000116666666667 0.017128125 0.0001
272 1 -0.032484375 0.000116666666667 0.018309375 0.0809523
273 1 -0.031303125 -0.00261666666667 -0.019490625 0.854762
274 1 -0.031303125 -0.00261666666667 -0.018309375 0.715686
275 1 -0.031303125 -0.00261666666667 -0.017128125 0.551282
276 1 -0.031303125 -0.00261666666667 -0.015946875 0.481481
277 1 -0.031303125 -0.00261666666667 -0.014765625 0.720798
278 1 -0.031303125 -0.00261666666667 -0.013584375 0.683761
279 1 -0.031303125 -0.00261666666667 -0.012403125 0.415242
280 1 -0.031303125 -0.00261666666667 -0.011221875 0.5
281 1 -0.031303125 -0.00261666666667 -0.010040625 0.61396
282 1 -0.031303125 -0.00261666666667 -0.008859375 0.574074
283 1 -0.031303125 -0.00261666666667 -0.007678125 0.393162
284 1 -0.031303125 -0.00261666666667 -0.006496875 0.376781
285 1 -0.031303125 -0.00261666666667 -0.005315625 0.481481
286 1 -0.031303125 -0.00261666666667 -0.004134375 0.595442
287 1 -0.031303125 -0.00261666666667 -0.002953125 0.492878
288 1 -0.031303125 -0.00261666666667 -0.001771875 0.425926
289 1 -0.031303125 -0.00261666666667 -0.000590625 0.45584
290 1 -0.031303125 -0.00261666666667 0.000590625 0.475783
291 1 -0.031303125 -0.00261666666667 0.001771875 0.448718
292 1 -0.031303125 -0.00261666666667 0.002953125 0.474359
293 1 -0.031303125 -0.00261666666667 0.004134375 0.371795
294 1 -0.031303125 -0.00261666666667 0.005315625 0.209402
295 1 -0.031303125 -0.00261666666667 0.006496875 0.15812
296 1 -0.031303125 -0.00261666666667 0.007678125 0.200142
297 1 -0.031303125 -0.00261666666667 0.008859375 0.165242
298 1 -0.031303125 -0.00261666666667 0.010040625 0.0698006
299 1 -0.031303125 -0.00261666666667 0.011221875 0.025641
300 1 -0.031303125 -0.00261666666667 0.012403125 0.0185185
301 1 -0.031303125 -0.00261666666667 0.013584375 0.0826211
302 1 -0.031303125 -0.00261666666667 0.014765625 0.216524
303 1 -0.031303125 -0.00261666666667 0.015946875 0.139601
304 1 -0.031303125 -0.00261666666667 0.017128125 0.0001
305 1 -0.031303125 -0.00261666666667 0.018309375 0.102941
306 1 -0.031303125 -0.00261666666667 0.019490625 0.147619
307 1 -0.031303125 -0.00125 -0.019490625 0.854762
308 1 -0.031303125 -0.00125 -0.018309375 0.715686
309 1 -0.031303125 -0.00125 -0.017128125 0.551282
310 1 -0.031303125 -0.00125 -0.015946875 0.481481
311 1 -0.031303125 -0.00125 -0.014765625 0.720798
312 1 -0.031303125 -0.00125 -0.013584375 0.683761
313 1 -0.031303125 -0.00125 -0.012403125 0.415242
314 1 -0.031303125 -0.00125 -0.011221875 0.5
315 1 -0.031303125 -0.00125 -0.010040625 0.61396
316 1 -0.031303125 -0.00125 -0.008859375 0.574074
317 1 -0.031303125 -0.00125 -0.007678125 0.393162
318 1 -0.031303125 -0.00125 -0.006496875 0.376781
319 1 -0.031303125 -0.00125 -0.005315625 0.481481
320 1 -0.031303125 -0.00125 -0.004134375 0.595442
321 1 -0.031303125 -0.00125 -0.002953125 0.492878
322 1 -0.031303125 -0.00125 -0.001771875 0.425926
323 1 -0.031303125 -0.00125 -0.000590625 0.45584
324 1 -0.031303125 -0.00125 0.000590625 0.475783
325 1 -0.031303125 -0.00125 0.001771875 0.448718
326 1 -0.031303125 -0.00125 0.002953125 0.474359
327 1 -0.031303125 -0.00125 0.004134375 0.371795
328 1 -0.031303125 -0.00125 0.005315625 0.209402
329 1 -0.031303125 -0.00125 0.006496875 0.15812
330 1 -0.031303125 -0.00125 0.007678125 0.200142
331 1 -0.031303125 -0.00125 0.008859375 0.165242
332 1 -0.031303125 -0.00125 0.010040625 0.0698006
333 1 -0.031303125 -0.00125 0.011221875 0.025641
334 1 -0.031303125 -0.00125 0.012403125 0.0185185
335 1 -0.031303125 -0.00125 0.013584375 0.0826211
336 1 -0.031303125 -0.00125 0.014765625 0.216524
337 1 -0.031303125 -0.00125 0.015946875 0.139601
338 1 -0.031303125 -0.00125 0.017128125 0.0001
339 1 -0.031303125 -0.00125 0.018309375 0.102941
340 1 -0.031303125 -0.00125 0.019490625 0.147619
341 1 -0.031303125 0.000116666666667 -0.019490625 0.854762
342 1 -0.031303125 0.000116666666667 -0.018309375 0.715686
343 1 -0.031303125 0.000116666666667 -0.017128125 0.551282
344 1 -0.031303125 0.000116666666667 -0.015946875 0.481481
345 1 -0.031303125 0.000116666666667 -0.014765625 0.720798
346 1 -0.031303125 0.000116666666667 -0.013584375 0.683761
347 1 -0.031303125 0.000116666666667 -0.012403125 0.415242
348 1 -0.031303125 0.000116666666667 -0.011221875 0.5
349 1 -0.031303125 0.000116666666667 -0.010040625 0.61396
350 1 -0.031303125 0.000116666666667 -0.008859375 0.574074
351 1 -0.031303125 0.000116666666667 -0.007678125 0.393162
352 1 -0.031303125 0.000116666666667 -0.006496875 0.376781
353 1 -0.031303125 0.000116666666667 -0.005315625 0.481481
354 1 -0.031303125 0.000116666666667 -0.004134375 0.595442
355 1 -0.031303125 0.000116666666667 -0.002953125 0.492878
356 1 -0.031303125 0.000116666666667 -0.001771875 0.425926
357 1 -0.031303125 0.000116666666667 -0.000590625 0.45584
358 1 -0.031303125 0.000116666666667 0.000590625 0.475783
359 1 -0.031303125 0.000116666666667 0.001771875 0.448718
360 1 -0.031303125 0.000116666666667 0.002953125 0.474359
361 1 -0.031303125 0.000116666666667 0.004134375 0.371795
362 1 -0.031303125 0.000116666666667 0.005315625 0.209402
363 1 -0.031303125 0.000116666666667 0.006496875 0.15812
364 1 -0.031303125 0.000116666666667 0.007678125 0.200142
365 1 -0.031303125 0.000116666666667 0.008859375 0.165242
366 1 -0.031303125 0.000116666666667 0.010040625 0.0698006
367 1 -0.031303125 0.000116666666667 0.011221875 0.025641
368 1 -0.031303125 0.000116666666667 0.012403125 0.0185185
369 1 -0.031303125 0.000116666666667 0.013584375 0.0826211
370 1 -0.031303125 0.000116666666667 0.014765625 0.216524
371 1 -0.031303125 0.000116666666667 0.015946875 0.139601
372 1 -0.031303125 0.000116666666667 0.017128125 0.0001
373 1 -0.031303125 0.000116666666667 0.018309375 0.102941
374 1 -0.031303125 0.000116666666667 0.019490625 0.147619
375 1 -0.030121875 -0.00261666666667 -0.020671875 0.795455
376 1 -0.030121875 -0.00261666666667 -0.019490625 0.725909
377 1 -0.030121875 -0.00261666666667 -0.018309375 0.746439
378 1 -0.030121875 -0.00261666666667 -0.017128125 0.690883
379 1 -0.030121875 -0.00261666666667 -0.015946875 0.77208
380 1 -0.030121875 -0.00261666666667 -0.014765625 0.525641
381 1 -0.030121875 -0.00261666666667 -0.013584375 0.297721
382 1 -0.030121875 -0.00261666666667 -0.012403125 0.415242
383 1 -0.030121875 -0.00261666666667 -0.011221875 0.732194
384 1 -0.030121875 -0.00261666666667 -0.010040625 0.569801
385 1 -0.030121875 -0.00261666666667 -0.008859375 0.525641
386 1 -0.030121875 -0.00261666666667 -0.007678125 0.477208
387 1 -0.030121875 -0.00261666666667 -0.006496875 0.711538
388 1 -0.030121875 -0.00261666666667 -0.005315625 0.38604
389 1 -0.030121875 -0.00261666666667 -0.004134375 0.260684
390 1 -0.030121875 -0.00261666666667 -0.002953125 0.216524
391 1 -0.030121875 -0.00261666666667 -0.001771875 0.176638
392 1 -0.030121875 -0.00261666666667 -0.000590625 0.242165
393 1 -0.030121875 -0.00261666666667 0.000590625 0.269943
394 1 -0.030121875 -0.00261666666667 0.001771875 0.393162
395 1 -0.030121875 -0.00261666666667 0.002953125 0.381766
396 1 -0.030121875 -0.00261666666667 0.004134375 0.393162
397 1 -0.030121875 -0.00261666666667 0.005315625 0.27208
398 1 -0.030121875 -0.00261666666667 0.006496875 0.209402
399 1 -0.030121875 -0.00261666666667 0.007678125 0.11396
400 1 -0.030121875 -0.00261666666667 0.008859375 0.139601
401 1 -0.030121875 -0.00261666666667 0.010040625 0.0001
402 1 -0.030121875 -0.00261666666667 0.011221875 0.0001
403 1 -0.030121875 -0.00261666666667 0.012403125 0.025641
404 1 -0.030121875 -0.00261666666667 0.013584375 0.20584
405 1 -0.030121875 -0.00261666666667 0.014765625 0.444444
406 1 -0.030121875 -0.00261666666667 0.015946875 0.279202
407 1 -0.030121875 -0.00261666666667 0.017128125 0.102564
408 1 -0.030121875 -0.00261666666667 0.018309375 0.076923
409 1 -0.030121875 -0.00261666666667 0.019490625 0.165242
410 1 -0.030121875 -0.00261666666667 0.020671875 0.16637
411 1 -0.030121875 -0.00125 -0.020671875 0.795455
412 1 -0.030121875 -0.00125 -0.019490625 0.725909
413 1 -0.030121875 -0.00125 -0.018309375 0.746439
414 1 -0.030121875 -0.00125 -0.017128125 0.690883
415 1 -0.030121875 -0.00125 -0.015946875 0.77208
416 1 -0.030121875 -0.00125 -0.014765625 0.525641
417 1 -0.030121875 -0.00125 -0.013584375 0.297721
418 1 -0.030121875 -0.00125 -0.012403125 0.415242
419 1 -0.030121875 -0.00125 -0.011221875 0.732194
420 1 -0.030121875 -0.00125 -0.010040625 0.569801
421 1 -0.030121875 -0.00125 -0.008859375 0.525641
422 1 -0.030121875 -0.00125 -0.007678125 0.477208
423 1 -0.030121875 -0.00125 -0.006496875 0.711538
424 1 -0.030121875 -0.00125 -0.005315625 0.38604
425 1 -0.030121875 -0.00125 -0.004134375 0.260684
426 1 -0.030121875 -0.00125 -0.002953125 0.216524
427 1 -0.030121875 -0.00125 -0.001771875 0.176638
428 1 -0.030121875 -0.00125 -0.000590625 0.242165
429 1 -0.030121875 -0.00125 0.000590625 0.269943
430 1 -0.030121875 -0.00125 0.001771875 0.393162
431 1 -0.030121875 -0.00125 0.002953125 0.381766
432 1 -0.030121875 -0.00125 0.004134375 0.393162
433 1 -0.030121875 -0.00125 0.005315625 0.27208
434 1 -0.030121875 -0.00125 0.006496875 0.209402
435 1 -0.030121875 -0.00125 0.007678125 0.11396
436 1 -0.030121875 -0.00125 0.008859375 0.139601
437 1 -0.030121875 -0.00125 0.010040625 0.0001
438 1 -0.030121875 -0.00125 0.011221875 0.0001
439 1 -0.030121875 -0.00125 0.012403125 0.025641
440 1 -0.030121875 -0.00125 0.013584375 0.20584
441 1 -0.030121875 -0.00125 0.014765625 0.444444
442 1 -0.030121875 -0.00125 0.015946875 0.279202
443 1 -0.030121875 -0.00125 0.017128125 0.102564
444 1 -0.030121875 -0.00125 0.018309375 0.076923
445 1 -0.030121875 -0.00125 0.019490625 0.165242
446 1 -0.030121875 -0.00125 0.020671875 0.16637
447 1 -0.030121875 0.000116666666667 -0.020671875 0.795455
448 1 -0.030121875 0.000116666666667 -0.019490625 0.725909
449 1 -0.030121875 0.000116666666667 -0.018309375 0.746439
450 1 -0.030121875 0.000116666666667 -0.017128125 0.690883
451 1 -0.030121875 0.000116666666667 -0.015946875 0.77208
452 1 -0.030121875 0.000116666666667 -0.014765625 0.525641
453 1 -0.030121875 0.000116666666667 -0.013584375 0.297721
454 1 -0.030121875 0.000116666666667 -0.012403125 0.415242
455 1 -0.030121875 0.000116666666667 -0.011221875 0.732194
456 1 -0.030121875 0.000116666666667 -0.010040625 0.569801
457 1 -0.030121875 0.000116666666667 -0.008859375 0.525641
458 1 -0.030121875 0.000116666666667 -0.007678125 0.477208
459 1 -0.030121875 0.000116666666667 -0.006496875 0.711538
460 1 -0.030121875 0.000116666666667 -0.005315625 0.38604
461 1 -0.030121875 0.000116666666667 -0.004134375 0.260684
462 1 -0.030121875 0.000116666666667 -0.002953125 0.216524
463 1 -0.030121875 0.000116666666667 -0.001771875 0.176638
464 1 -0.030121875 0.000116666666667 -0.000590625 0.242165
465 1 -0.030121875 0.000116666666667 0.000590625 0.269943
466 1 -0.030121875 0.000116666666667 0.001771875 0.393162
467 1 -0.030121875 0.000116666666667 0.002953125 0.381766
468 1 -0.030121875 0.000116666666667 0.004134375 0.393162
469 1 -0.030121875 0.000116666666667 0.005315625 0.27208
470 1 -0.030121875 0.000116666666667 0.006496875 0.209402
471 1 -0.030121875 0.000116666666667 0.007678125 0.11396
472 1 -0.030121875 0.000116666666667 0.008859375 0.139601
473 1 -0.030121875 0.000116666666667 0.010040625 0.0001
474 1 -0.030121875 0.000116666666667 0.011221875 0.0001
475 1 -0.030121875 0.000116666666667 0.012403125 0.025641
476 1 -0.030121875 0.000116666666667 0.013584375 0.20584
477 1 -0.030121875 0.000116666666667 0.014765625 0.444444
478 1 -0.030121875 0.000116666666667 0.015946875 0.279202
479 1 -0.030121875 0.000116666666667 0.017128125 0.102564
480 1 -0.030121875 0.000116666666667 0.018309375 0.076923
481 1 -0.030121875 0.000116666666667 0.019490625 0.165242
482 1 -0.030121875 0.000116666666667 0.020671875 0.16637
483 1 -0.028940625 -0.00261666666667 -0.021853125 0.598485
484 1 -0.028940625 -0.00261666666667 -0.020671875 0.6683
485 1 -0.028940625 -0.00261666666667 -0.019490625 0.788462
486 1 -0.028940625 -0.00261666666667 -0.018309375 0.893162
487 1 -0.028940625 -0.00261666666667 -0.017128125 0.804843
488 1 -0.028940625 -0.00261666666667 -0.015946875 0.665242
489 1 -0.028940625 -0.00261666666667 -0.014765625 0.334758
490 1 -0.028940625 -0.00261666666667 -0.013584375 0.139601
491 1 -0.028940625 -0.00261666666667 -0.012403125 0.487179
492 1 -0.028940625 -0.00261666666667 -0.011221875 0.621083
493 1 -0.028940625 -0.00261666666667 -0.010040625 0.304843
494 1 -0.028940625 -0.00261666666667 -0.008859375 0.279202
495 1 -0.028940625 -0.00261666666667 -0.007678125 0.61396
496 1 -0.028940625 -0.00261666666667 -0.006496875 0.911681
497 1 -0.028940625 -0.00261666666667 -0.005315625 0.332621
498 1 -0.028940625 -0.00261666666667 -0.004134375 0.0441596
499 1 -0.028940625 -0.00261666666667 -0.002953125 0.121083
500 1 -0.028940625 -0.00261666666667 -0.001771875 0.139601
501 1 -0.028940625 -0.00261666666667 -0.000590625 0.0954415
502 1 -0.028940625 -0.00261666666667 0.000590625 0.254986
503 1 -0.028940625 -0.00261666666667 0.001771875 0.34188
504 1 -0.028940625 -0.00261666666667 0.002953125 0.411681
505 1 -0.028940625 -0.00261666666667 0.004134375 0.448718
506 1 -0.028940625 -0.00261666666667 0.005315625 0.309117
507 1 -0.028940625 -0.00261666666667 0.006496875 0.139601
508 1 -0.028940625 -0.00261666666667 0.007678125 0.203704
509 1 -0.028940625 -0.00261666666667 0.008859375 0.0954416
510 1 -0.028940625 -0.00261666666667 0.010040625 0.0001
511 1 -0.028940625 -0.00261666666667 0.011221875 0.0001
512 1 -0.028940625 -0.00261666666667 0.012403125 0.0001
513 1 -0.028940625 -0.00261666666667 0.013584375 0.165242
514 1 -0.028940625 -0.00261666666667 0.014765625 0.418803
515 1 -0.028940625 -0.00261666666667 0.015946875 0.418803
516 1 -0.028940625 -0.00261666666667 0.017128125 0.253561
517 1 -0.028940625 -0.00261666666667 0.018309375 0.304843
518 1 -0.028940625 -0.00261666666667 0.019490625 0.279202
519 1 -0.028940625 -0.00261666666667 0.020671875 0.205505
520 1 -0.028940625 -0.00261666666667 0.021853125 0.340909
521 1 -0.028940625 -0.00125 -0.021853125 0.598485
522 1 -0.028940625 -0.00125 -0.020671875 0.6683
523 1 -0.028940625 -0.00125 -0.019490625 0.788462
524 1 -0.028940625 -0.00125 -0.018309375 0.893162
525 1 -0.028940625 -0.00125 -0.017128125 0.804843
526 1 -0.028940625 -0.00125 -0.015946875 0.665242
527 1 -0.028940625 -0.00125 -0.014765625 0.334758
528 1 -0.028940625 -0.00125 -0.013584375 0.139601
529 1 -0.028940625 -0.00125 -0.012403125 0.487179
530 1 -0.028940625 -0.00125 -0.011221875 0.621083
531 1 -0.028940625 -0.00125 -0.010040625 0.304843
532 1 -0.028940625 -0.00125 -0.008859375 0.279202
533 1 -0.028940625 -0.00125 -0.007678125 0.61396
534 1 -0.028940625 -0.00125 -0.006496875 0.911681
535 1 -0.028940625 -0.00125 -0.005315625 0.332621
536 1 -0.028940625 -0.00125 -0.004134375 0.0441596
537 1 -0.028940625 -0.00125 -0.002953125 0.121083
538 1 -0.028940625 -0.00125 -0.001771875 0.139601
539 1 -0.028940625 -0.00125 -0.000590625 0.0954415