ITEM: TIMESTEP
0
ITEM: NUMBER OF ATOMS
9240
ITEM: BOX BOUNDS ss ss ss
-3.7007399999999996e-02 3.7007399999999996e-02
-2.0002499999999999e-03 2.5000000000000004e-07
-3.7007399999999996e-02 3.7007399999999996e-02
ITEM: ATOMS id type x y z c_1
0 1 -0.037209375 -0.00261666666667 -0.000590625 1.0
1 1 -0.037209375 -0.00125 -0.000590625 1.0
2 1 -0.037209375 0.000116666666667 -0.000590625 1.0
3 1 -0.036028125 -0.00261666666667 -0.007678125 0.17619
4 1 -0.036028125 -0.00261666666667 -0.006496875 0.0498575
5 1 -0.036028125 -0.00261666666667 -0.005315625 0.173789
6 1 -0.036028125 -0.00261666666667 -0.004134375 0.39886
7 1 -0.036028125 -0.00261666666667 -0.002953125 0.413105
8 1 -0.036028125 -0.00261666666667 -0.001771875 0.424501
9 1 -0.036028125 -0.00261666666667 -0.000590625 0.56026
10 1 -0.036028125 -0.00261666666667 0.000590625 0.522768
11 1 -0.036028125 -0.00261666666667 0.001771875 0.424501
12 1 -0.036028125 -0.00261666666667 0.002953125 0.413105
13 1 -0.036028125 -0.00261666666667 0.004134375 0.39886
14 1 -0.036028125 -0.00261666666667 0.005315625 0.173789
15 1 -0.036028125 -0.00261666666667 0.006496875 0.0498575
16 1 -0.036028125 -0.00261666666667 0.007678125 0.17619
17 1 -0.036028125 -0.00125 -0.007678125 0.17619
18 1 -0.036028125 -0.00125 -0.006496875 0.0498575
19 1 -0.036028125 -0.00125 -0.005315625 0.173789
20 1 -0.036028125 -0.00125 -0.004134375 0.39886
21 1 -0.036028125 -0.00125 -0.002953125 0.413105
22 1 -0.036028125 -0.00125 -0.001771875 0.424501
23 1 -0.036028125 -0.00125 -0.000590625 0.56026
24 1 -0.036028125 -0.00125 0.000590625 0.522768
25 1 -0.036028125 -0.00125 0.001771875 0.424501
26 1 -0.036028125 -0.00125 0.002953125 0.413105
27 1 -0.036028125 -0.00125 0.004134375 0.39886
28 1 -0.036028125 -0.00125 0.005315625 0.173789
29 1 -0.036028125 -0.00125 0.006496875 0.0498575
30 1 -0.036028125 -0.00125 0.007678125 0.17619
31 1 -0.036028125 0.000116666666667 -0.007678125 0.17619
32 1 -0.036028125 0.000116666666667 -0.006496875 0.0498575
33 1 -0.036028125 0.000116666666667 -0.005315625 0.173789
34 1 -0.036028125 0.000116666666667 -0.004134375 0.39886
35 1 -0.036028125 0.000116666666667 -0.002953125 0.413105
36 1 -0.036028125 0.000116666666667 -0.001771875 0.424501
37 1 -0.036028125 0.000116666666667 -0.000590625 0.56026
38 1 -0.036028125 0.000116666666667 0.000590625 0.522768
39 1 -0.036028125 0.000116666666667 0.001771875 0.424501
40 1 -0.036028125 0.000116666666667 0.002953125 0.413105
41 1 -0.036028125 0.000116666666667 0.004134375 0.39886
42 1 -0.036028125 0.000116666666667 0.005315625 0.173789
43 1 -0.036028125 0.000116666666667 0.006496875 0.0498575
44 1 -0.036028125 0.000116666666667 0.007678125 0.17619
45 1 -0.034846875 -0.00261666666667 -0.011221875 0.0001
46 1 -0.034846875 -0.00261666666667 -0.010040625 0.324786
47 1 -0.034846875 -0.00261666666667 -0.008859375 0.409524
48 1 -0.034846875 -0.00261666666667 -0.007678125 0.292484
49 1 -0.034846875 -0.00261666666667 -0.006496875 0.367521
50 1 -0.034846875 -0.00261666666667 -0.005315625 0.468661
51 1 -0.034846875 -0.00261666666667 -0.004134375 0.45584
52 1 -0.034846875 -0.00261666666667 -0.002953125 0.573362
53 1 -0.034846875 -0.00261666666667 -0.001771875 0.519943
54 1 -0.034846875 -0.00261666666667 -0.000590625 0.530769
55 1 -0.034846875 -0.00261666666667 0.000590625 0.536859
56 1 -0.034846875 -0.00261666666667 0.001771875 0.519943
57 1 -0.034846875 -0.00261666666667 0.002953125 0.573362
58 1 -0.034846875 -0.00261666666667 0.004134375 0.45584
59 1 -0.034846875 -0.00261666666667 0.005315625 0.468661
60 1 -0.034846875 -0.00261666666667 0.006496875 0.367521
61 1 -0.034846875 -0.00261666666667 0.007678125 0.292484
62 1 -0.034846875 -0.00261666666667 0.008859375 0.409524
63 1 -0.034846875 -0.00261666666667 0.010040625 0.324786
64 1 -0.034846875 -0.00261666666667 0.011221875 0.0001
65 1 -0.034846875 -0.00125 -0.011221875 0.0001
66 1 -0.034846875 -0.00125 -0.010040625 0.324786
67 1 -0.034846875 -0.00125 -0.008859375 0.409524
68 1 -0.034846875 -0.00125 -0.007678125 0.292484
69 1 -0.034846875 -0.00125 -0.006496875 0.367521
70 1 -0.034846875 -0.00125 -0.005315625 0.468661
71 1 -0.034846875 -0.00125 -0.004134375 0.45584
72 1 -0.034846875 -0.00125 -0.002953125 0.573362
73 1 -0.034846875 -0.00125 -0.001771875 0.519943
74 1 -0.034846875 -0.00125 -0.000590625 0.530769
75 1 -0.034846875 -0.00125 0.000590625 0.536859
76 1 -0.034846875 -0.00125 0.001771875 0.519943
77 1 -0.034846875 -0.00125 0.002953125 0.573362
78 1 -0.034846875 -0.00125 0.004134375 0.45584
79 1 -0.034846875 -0.00125 0.005315625 0.468661
80 1 -0.034846875 -0.00125 0.006496875 0.367521
81 1 -0.034846875 -0.00125 0.007678125 0.292484
82 1 -0.034846875 -0.00125 0.008859375 0.409524
83 1 -0.034846875 -0.00125 0.010040625 0.324786
84 1 -0.034846875 -0.00125 0.011221875 0.0001
85 1 -0.034846875 0.000116666666667 -0.011221875 0.0001
86 1 -0.034846875 0.000116666666667 -0.010040625 0.324786
87 1 -0.034846875 0.000116666666667 -0.008859375 0.409524
88 1 -0.034846875 0.000116666666667 -0.007678125 0.292484
89 1 -0.034846875 0.000116666666667 -0.006496875 0.367521
90 1 -0.034846875 0.000116666666667 -0.005315625 0.468661
91 1 -0.034846875 0.000116666666667 -0.004134375 0.45584
92 1 -0.034846875 0.000116666666667 -0.002953125 0.573362
93 1 -0.034846875 0.000116666666667 -0.001771875 0.519943
94 1 -0.034846875 0.000116666666667 -0.000590625 0.530769
95 1 -0.034846875 0.000116666666667 0.000590625 0.536859
96 1 -0.034846875 0.000116666666667 0.001771875 0.519943
97 1 -0.034846875 0.000116666666667 0.002953125 0.573362
98 1 -0.034846875 0.000116666666667 0.004134375 0.45584
99 1 -0.034846875 0.000116666666667 0.005315625 0.468661
100 1 -0.034846875 0.000116666666667 0.006496875 0.367521
101 1 -0.034846875 0.000116666666667 0.007678125 0.292484
102 1 -0.034846875 0.000116666666667 0.008859375 0.409524
103 1 -0.034846875 0.000116666666667 0.010040625 0.324786
104 1 -0.034846875 0.000116666666667 0.011221875 0.0001
105 1 -0.033665625 -0.00261666666667 -0.013584375 0.472066
106 1 -0.033665625 -0.00261666666667 -0.012403125 0.330729
107 1 -0.033665625 -0.00261666666667 -0.011221875 0.17094
108 1 -0.033665625 -0.00261666666667 -0.010040625 0.497863
109 1 -0.033665625 -0.00261666666667 -0.008859375 0.367521
110 1 -0.033665625 -0.00261666666667 -0.007678125 0.14886
111 1 -0.033665625 -0.00261666666667 -0.006496875 0.377493
112 1 -0.033665625 -0.00261666666667 -0.005315625 0.595442
113 1 -0.033665625 -0.00261666666667 -0.004134375 0.569801
114 1 -0.033665625 -0.00261666666667 -0.002953125 0.672365
115 1 -0.033665625 -0.00261666666667 -0.001771875 0.595442
116 1 -0.033665625 -0.00261666666667 -0.000590625 0.591453
117 1 -0.033665625 -0.00261666666667 0.000590625 0.514957
118 1 -0.033665625 -0.00261666666667 0.001771875 0.595442
119 1 -0.033665625 -0.00261666666667 0.002953125 0.672365
120 1 -0.033665625 -0.00261666666667 0.004134375 0.569801
121 1 -0.033665625 -0.00261666666667 0.005315625 0.595442
122 1 -0.033665625 -0.00261666666667 0.006496875 0.377493
123 1 -0.033665625 -0.00261666666667 0.007678125 0.14886
124 1 -0.033665625 -0.00261666666667 0.008859375 0.367521
125 1 -0.033665625 -0.00261666666667 0.010040625 0.497863
126 1 -0.033665625 -0.00261666666667 0.011221875 0.17094
127 1 -0.033665625 -0.00261666666667 0.012403125 0.330729
128 1 -0.033665625 -0.00261666666667 0.013584375 0.472066
129 1 -0.033665625 -0.00125 -0.013584375 0.472066
130 1 -0.033665625 -0.00125 -0.012403125 0.330729
131 1 -0.033665625 -0.00125 -0.011221875 0.17094
132 1 -0.033665625 -0.00125 -0.010040625 0.497863
133 1 -0.033665625 -0.00125 -0.008859375 0.367521
134 1 -0.033665625 -0.00125 -0.007678125 0.14886
135 1 -0.033665625 -0.00125 -0.006496875 0.377493
136 1 -0.033665625 -0.00125 -0.005315625 0.595442
137 1 -0.033665625 -0.00125 -0.004134375 0.569801
138 1 -0.033665625 -0.00125 -0.002953125 0.672365
139 1 -0.033665625 -0.00125 -0.001771875 0.595442
140 1 -0.033665625 -0.00125 -0.000590625 0.591453
141 1 -0.033665625 -0.00125 0.000590625 0.514957
142 1 -0.033665625 -0.00125 0.001771875 0.595442
143 1 -0.033665625 -0.00125 0.002953125 0.672365
144 1 -0.033665625 -0.00125 0.004134375 0.569801
145 1 -0.033665625 -0.00125 0.005315625 0.595442
146 1 -0.033665625 -0.00125 0.006496875 0.377493
147 1 -0.033665625 -0.00125 0.007678125 0.14886
148 1 -0.033665625 -0.00125 0.008859375 0.367521
149 1 -0.033665625 -0.00125 0.010040625 0.497863
150 1 -0.033665625 -0.00125 0.011221875 0.17094
151 1 -0.033665625 -0.00125 0.012403125 0.330729
152 1 -0.033665625 -0.00125 0.013584375 0.472066
153 1 -0.033665625 0.000116666666667 -0.013584375 0.472066
154 1 -0.033665625 0.000116666666667 -0.012403125 0.330729
155 1 -0.033665625 0.000116666666667 -0.011221875 0.17094
156 1 -0.033665625 0.000116666666667 -0.010040625 0.497863
157 1 -0.033665625 0.000116666666667 -0.008859375 0.367521
158 1 -0.033665625 0.000116666666667 -0.007678125 0.14886
159 1 -0.033665625 0.000116666666667 -0.006496875 0.377493
160 1 -0.033665625 0.000116666666667 -0.005315625 0.595442
161 1 -0.033665625 0.000116666666667 -0.004134375 0.569801
162 1 -0.033665625 0.000116666666667 -0.002953125 0.672365
163 1 -0.033665625 0.000116666666667 -0.001771875 0.595442
164 1 -0.033665625 0.000116666666667 -0.000590625 0.591453
165 1 -0.033665625 0.000116666666667 0.000590625 0.514957
166 1 -0.033665625 0.000116666666667 0.001771875 0.595442
167 1 -0.033665625 0.000116666666667 0.002953125 0.672365
168 1 -0.033665625 0.000116666666667 0.004134375 0.569801
169 1 -0.033665625 0.000116666666667 0.005315625 0.595442
170 1 -0.033665625 0.000116666666667 0.006496875 0.377493
171 1 -0.033665625 0.000116666666667 0.007678125 0.14886
172 1 -0.033665625 0.000116666666667 0.008859375 0.367521
173 1 -0.033665625 0.000116666666667 0.010040625 0.497863
174 1 -0.033665625 0.000116666666667 0.011221875 0.17094
175 1 -0.033665625 0.000116666666667 0.012403125 0.330729
176 1 -0.033665625 0.000116666666667 0.013584375 0.472066
177 1 -0.032484375 -0.00261666666667 -0.018309375 0.271428
178 1 -0.032484375 -0.00261666666667 -0.017128125 0.442857
179 1 -0.032484375 -0.00261666666667 -0.015946875 0.415033
180 1 -0.032484375 -0.00261666666667 -0.014765625 0.22792
181 1 -0.032484375 -0.00261666666667 -0.013584375 0.5349
182 1 -0.032484375 -0.00261666666667 -0.012403125 0.418803
183 1 -0.032484375 -0.00261666666667 -0.011221875 0.525641
184 1 -0.032484375 -0.00261666666667 -0.010040625 0.665242
185 1 -0.032484375 -0.00261666666667 -0.008859375 0.599715
186 1 -0.032484375 -0.00261666666667 -0.007678125 0.488604
187 1 -0.032484375 -0.00261666666667 -0.006496875 0.45584
188 1 -0.032484375 -0.00261666666667 -0.005315625 0.58547
189 1 -0.032484375 -0.00261666666667 -0.004134375 0.709402
190 1 -0.032484375 -0.00261666666667 -0.002953125 0.65812
191 1 -0.032484375 -0.00261666666667 -0.001771875 0.595442
192 1 -0.032484375 -0.00261666666667 -0.000590625 0.565812
193 1 -0.032484375 -0.00261666666667 0.000590625 0.566239
194 1 -0.032484375 -0.00261666666667 0.001771875 0.595442
195 1 -0.032484375 -0.00261666666667 0.002953125 0.65812
196 1 -0.032484375 -0.00261666666667 0.004134375 0.709402
197 1 -0.032484375 -0.00261666666667 0.005315625 0.58547
198 1 -0.032484375 -0.00261666666667 0.006496875 0.45584
199 1 -0.032484375 -0.00261666666667 0.007678125 0.488604
200 1 -0.032484375 -0.00261666666667 0.008859375 0.599715
201 1 -0.032484375 -0.00261666666667 0.010040625 0.665242
202 1 -0.032484375 -0.00261666666667 0.011221875 0.525641
203 1 -0.032484375 -0.00261666666667 0.012403125 0.418803
204 1 -0.032484375 -0.00261666666667 0.013584375 0.5349
205 1 -0.032484375 -0.00261666666667 0.014765625 0.22792
206 1 -0.032484375 -0.00261666666667 0.015946875 0.415033
207 1 -0.032484375 -0.00261666666667 0.017128125 0.442857
208 1 -0.032484375 -0.00261666666667 0.018309375 0.271428
209 1 -0.032484375 -0.00125 -0.018309375 0.271428
210 1 -0.032484375 -0.00125 -0.017128125 0.442857
211 1 -0.032484375 -0.00125 -0.015946875 0.415033
212 1 -0.032484375 -0.00125 -0.014765625 0.22792
213 1 -0.032484375 -0.00125 -0.013584375 0.5349
214 1 -0.032484375 -0.00125 -0.012403125 0.418803
215 1 -0.032484375 -0.00125 -0.011221875 0.525641
216 1 -0.032484375 -0.00125 -0.010040625 0.665242
217 1 -0.032484375 -0.00125 -0.008859375 0.599715
218 1 -0.032484375 -0.00125 -0.007678125 0.488604
219 1 -0.032484375 -0.00125 -0.006496875 0.45584
220 1 -0.032484375 -0.00125 -0.005315625 0.58547
221 1 -0.032484375 -0.00125 -0.004134375 0.709402
222 1 -0.032484375 -0.00125 -0.002953125 0.65812
223 1 -0.032484375 -0.00125 -0.001771875 0.595442
224 1 -0.032484375 -0.00125 -0.000590625 0.565812
225 1 -0.032484375 -0.00125 0.000590625 0.566239
226 1 -0.032484375 -0.00125 0.001771875 0.595442
227 1 -0.032484375 -0.00125 0.002953125 0.65812
228 1 -0.032484375 -0.00125 0.004134375 0.709402
229 1 -0.032484375 -0.00125 0.005315625 0.58547
230 1 -0.032484375 -0.00125 0.006496875 0.45584
231 1 -0.032484375 -0.00125 0.007678125 0.488604
232 1 -0.032484375 -0.00125 0.008859375 0.599715
233 1 -0.032484375 -0.00125 0.010040625 0.665242
234 1 -0.032484375 -0.00125 0.011221875 0.525641
235 1 -0.032484375 -0.00125 0.012403125 0.418803
236 1 -0.032484375 -0.00125 0.013584375 0.5349
237 1 -0.032484375 -0.00125 0.014765625 0.22792
238 1 -0.032484375 -0.00125 0.015946875 0.415033
239 1 -0.032484375 -0.00125 0.017128125 0.442857
240 1 -0.032484375 -0.00125 0.018309375 0.271428
241 1 -0.032484375 0.000116666666667 -0.018309375 0.271428
242 1 -0.032484375 0.000116666666667 -0.017128125 0.442857
243 1 -0.032484375 0.000116666666667 -0.015946875 0.415033
244 1 -0.032484375 0.000116666666667 -0.014765625 0.22792
245 1 -0.032484375 0.000116666666667 -0.013584375 0.5349
246 1 -0.032484375 0.000116666666667 -0.012403125 0.418803
247 1 -0.032484375 0.000116666666667 -0.011221875 0.525641
248 1 -0.032484375 0.000116666666667 -0.010040625 0.665242
249 1 -0.032484375 0.000116666666667 -0.008859375 0.599715
250 1 -0.032484375 0.000116666666667 -0.007678125 0.488604
251 1 -0.032484375 0.000116666666667 -0.006496875 0.45584
252 1 -0.032484375 0.000116666666667 -0.005315625 0.58547
253 1 -0.032484375 0.000116666666667 -0.004134375 0.709402
254 1 -0.032484375 0.000116666666667 -0.002953125 0.65812
255 1 -0.032484375 0.000116666666667 -0.001771875 0.595442
256 1 -0.032484375 0.000116666666667 -0.000590625 0.565812
257 1 -0.032484375 0.000116666666667 0.000590625 0.566239
258 1 -0.032484375 0.000116666666667 0.001771875 0.595442
259 1 -0.032484375 0.000116666666667 0.002953125 0.65812
260 1 -0.032484375 0.000116666666667 0.004134375 0.709402
261 1 -0.032484375 0.000116666666667 0.005315625 0.58547
262 1 -0.032484375 0.000116666666667 0.006496875 0.45584
263 1 -0.032484375 0.000116666666667 0.007678125 0.488604
264 1 -0.032484375 0.000116666666667 0.008859375 0.599715
265 1 -0.032484375 0.000116666666667 0.010040625 0.665242
266 1 -0.032484375 0.000116666666667 0.011221875 0.525641
267 1 -0.032484375 0.000116666666667 0.012403125 0.418803
268 1 -0.032484375 0.000116666666667 0.013584375 0.5349
269 1 -0.032484375 0.000116666666667 0.014765625 0.22792
270 1 -0.032484375 0.000116666666667 0.015946875 0.415033
271 1 -0.032484375 0.000116666666667 0.017128125 0.442857
272 1 -0.032484375 0.000116666666667 0.018309375 0.271428
273 1 -0.031303125 -0.00261666666667 -0.019490625 0.519048
274 1 -0.031303125 -0.00261666666667 -0.018309375 0.517974
275 1 -0.031303125 -0.00261666666667 -0.017128125 0.581197
276 1 -0.031303125 -0.00261666666667 -0.015946875 0.621083
277 1 -0.031303125 -0.00261666666667 -0.014765625 0.507122
278 1 -0.031303125 -0.00261666666667 -0.013584375 0.40812
279 1 -0.031303125 -0.00261666666667 -0.012403125 0.481481
280 1 -0.031303125 -0.00261666666667 -0.011221875 0.518519
281 1 -0.031303125 -0.00261666666667 -0.010040625 0.555556
282 1 -0.031303125 -0.00261666666667 -0.008859375 0.809117
283 1 -0.031303125 -0.00261666666667 -0.007678125 0.551282
284 1 -0.031303125 -0.00261666666667 -0.006496875 0.613961
285 1 -0.031303125 -0.00261666666667 -0.005315625 0.676638
286 1 -0.031303125 -0.00261666666667 -0.004134375 0.867521
287 1 -0.031303125 -0.00261666666667 -0.002953125 0.576923
288 1 -0.031303125 -0.00261666666667 -0.001771875 0.753561
289 1 -0.031303125 -0.00261666666667 -0.000590625 0.708547
290 1 -0.031303125 -0.00261666666667 0.000590625 0.685897
291 1 -0.031303125 -0.00261666666667 0.001771875 0.753561
292 1 -0.031303125 -0.00261666666667 0.002953125 0.576923
293 1 -0.031303125 -0.00261666666667 0.004134375 0.867521
294 1 -0.031303125 -0.00261666666667 0.005315625 0.676638
295 1 -0.031303125 -0.00261666666667 0.006496875 0.613961
296 1 -0.031303125 -0.00261666666667 0.007678125 0.551282
297 1 -0.031303125 -0.00261666666667 0.008859375 0.809117
298 1 -0.031303125 -0.00261666666667 0.010040625 0.555556
299 1 -0.031303125 -0.00261666666667 0.011221875 0.518519
300 1 -0.031303125 -0.00261666666667 0.012403125 0.481481
301 1 -0.031303125 -0.00261666666667 0.013584375 0.40812
302 1 -0.031303125 -0.00261666666667 0.014765625 0.507122
303 1 -0.031303125 -0.00261666666667 0.015946875 0.621083
304 1 -0.031303125 -0.00261666666667 0.017128125 0.581197
305 1 -0.031303125 -0.00261666666667 0.018309375 0.517974
306 1 -0.031303125 -0.00261666666667 0.019490625 0.519048
307 1 -0.031303125 -0.00125 -0.019490625 0.519048
308 1 -0.031303125 -0.00125 -0.018309375 0.517974
309 1 -0.031303125 -0.00125 -0.017128125 0.581197
310 1 -0.031303125 -0.00125 -0.015946875 0.621083
311 1 -0.031303125 -0.00125 -0.014765625 0.507122
312 1 -0.031303125 -0.00125 -0.013584375 0.40812
313 1 -0.031303125 -0.00125 -0.012403125 0.481481
314 1 -0.031303125 -0.00125 -0.011221875 0.518519
315 1 -0.031303125 -0.00125 -0.010040625 0.555556
316 1 -0.031303125 -0.00125 -0.008859375 0.809117
317 1 -0.031303125 -0.00125 -0.007678125 0.551282
318 1 -0.031303125 -0.00125 -0.006496875 0.613961
319 1 -0.031303125 -0.00125 -0.005315625 0.676638
320 1 -0.031303125 -0.00125 -0.004134375 0.867521
321 1 -0.031303125 -0.00125 -0.002953125 0.576923
322 1 -0.031303125 -0.00125 -0.001771875 0.753561
323 1 -0.031303125 -0.00125 -0.000590625 0.708547
324 1 -0.031303125 -0.00125 0.000590625 0.685897
325 1 -0.031303125 -0.00125 0.001771875 0.753561
326 1 -0.031303125 -0.00125 0.002953125 0.576923
327 1 -0.031303125 -0.00125 0.004134375 0.867521
328 1 -0.031303125 -0.00125 0.005315625 0.676638
329 1 -0.031303125 -0.00125 0.006496875 0.613961
330 1 -0.031303125 -0.00125 0.007678125 0.551282
331 1 -0.031303125 -0.00125 0.008859375 0.809117
332 1 -0.031303125 -0.00125 0.010040625 0.555556
333 1 -0.031303125 -0.00125 0.011221875 0.518519
334 1 -0.031303125 -0.00125 0.012403125 0.481481
335 1 -0.031303125 -0.00125 0.013584375 0.40812
336 1 -0.031303125 -0.00125 0.014765625 0.507122
337 1 -0.031303125 -0.00125 0.015946875 0.621083
338 1 -0.031303125 -0.00125 0.017128125 0.581197
339 1 -0.031303125 -0.00125 0.018309375 0.517974
340 1 -0.031303125 -0.00125 0.019490625 0.519048
341 1 -0.031303125 0.000116666666667 -0.019490625 0.519048
342 1 -0.031303125 0.000116666666667 -0.018309375 0.517974
343 1 -0.031303125 0.000116666666667 -0.017128125 0.581197
344 1 -0.031303125 0.000116666666667 -0.015946875 0.621083
345 1 -0.031303125 0.000116666666667 -0.014765625 0.507122
346 1 -0.031303125 0.000116666666667 -0.013584375 0.40812
347 1 -0.031303125 0.000116666666667 -0.012403125 0.481481
348 1 -0.031303125 0.000116666666667 -0.011221875 0.518519
349 1 -0.031303125 0.000116666666667 -0.010040625 0.555556
350 1 -0.031303125 0.000116666666667 -0.008859375 0.809117
351 1 -0.031303125 0.000116666666667 -0.007678125 0.551282
352 1 -0.031303125 0.000116666666667 -0.006496875 0.613961
353 1 -0.031303125 0.000116666666667 -0.005315625 0.676638
354 1 -0.031303125 0.000116666666667 -0.004134375 0.867521
355 1 -0.031303125 0.000116666666667 -0.002953125 0.576923
356 1 -0.031303125 0.000116666666667 -0.001771875 0.753561
357 1 -0.031303125 0.000116666666667 -0.000590625 0.708547
358 1 -0.031303125 0.000116666666667 0.000590625 0.685897
359 1 -0.031303125 0.000116666666667 0.001771875 0.753561
360 1 -0.031303125 0.000116666666667 0.002953125 0.576923
361 1 -0.031303125 0.000116666666667 0.004134375 0.867521
362 1 -0.031303125 0.000116666666667 0.005315625 0.676638
363 1 -0.031303125 0.000116666666667 0.006496875 0.613961
364 1 -0.031303125 0.000116666666667 0.007678125 0.551282
365 1 -0.031303125 0.000116666666667 0.008859375 0.809117
366 1 -0.031303125 0.000116666666667 0.010040625 0.555556
367 1 -0.031303125 0.000116666666667 0.011221875 0.518519
368 1 -0.031303125 0.000116666666667 0.012403125 0.481481
369 1 -0.031303125 0.000116666666667 0.013584375 0.40812
370 1 -0.031303125 0.000116666666667 0.014765625 0.507122
371 1 -0.031303125 0.000116666666667 0.015946875 0.621083
372 1 -0.031303125 0.000116666666667 0.017128125 0.581197
373 1 -0.031303125 0.000116666666667 0.018309375 0.517974
374 1 -0.031303125 0.000116666666667 0.019490625 0.519048
375 1 -0.030121875 -0.00261666666667 -0.020671875 0.27503
376 1 -0.030121875 -0.00261666666667 -0.019490625 0.397436
377 1 -0.030121875 -0.00261666666667 -0.018309375 0.470085
378 1 -0.030121875 -0.00261666666667 -0.017128125 0.816239
379 1 -0.030121875 -0.00261666666667 -0.015946875 0.702279
380 1 -0.030121875 -0.00261666666667 -0.014765625 0.753561
381 1 -0.030121875 -0.00261666666667 -0.013584375 0.503561
382 1 -0.030121875 -0.00261666666667 -0.012403125 0.665242
383 1 -0.030121875 -0.00261666666667 -0.011221875 0.378917
384 1 -0.030121875 -0.00261666666667 -0.010040625 0.621083
385 1 -0.030121875 -0.00261666666667 -0.008859375 0.588319
386 1 -0.030121875 -0.00261666666667 -0.007678125 0.558405
387 1 -0.030121875 -0.00261666666667 -0.006496875 0.659544
388 1 -0.030121875 -0.00261666666667 -0.005315625 0.713675
389 1 -0.030121875 -0.00261666666667 -0.004134375 0.72792
390 1 -0.030121875 -0.00261666666667 -0.002953125 0.790598
391 1 -0.030121875 -0.00261666666667 -0.001771875 0.688034
392 1 -0.030121875 -0.00261666666667 -0.000590625 0.804843
393 1 -0.030121875 -0.00261666666667 0.000590625 0.823362
394 1 -0.030121875 -0.00261666666667 0.001771875 0.688034
395 1 -0.030121875 -0.00261666666667 0.002953125 0.790598
396 1 -0.030121875 -0.00261666666667 0.004134375 0.72792
397 1 -0.030121875 -0.00261666666667 0.005315625 0.713675
398 1 -0.030121875 -0.00261666666667 0.006496875 0.659544
399 1 -0.030121875 -0.00261666666667 0.007678125 0.558405
400 1 -0.030121875 -0.00261666666667 0.008859375 0.588319
401 1 -0.030121875 -0.00261666666667 0.010040625 0.621083
402 1 -0.030121875 -0.00261666666667 0.011221875 0.378917
403 1 -0.030121875 -0.00261666666667 0.012403125 0.665242
404 1 -0.030121875 -0.00261666666667 0.013584375 0.503561
405 1 -0.030121875 -0.00261666666667 0.014765625 0.753561
406 1 -0.030121875 -0.00261666666667 0.015946875 0.702279
407 1 -0.030121875 -0.00261666666667 0.017128125 0.816239
408 1 -0.030121875 -0.00261666666667 0.018309375 0.470085
409 1 -0.030121875 -0.00261666666667 0.019490625 0.397436
410 1 -0.030121875 -0.00261666666667 0.020671875 0.27503
411 1 -0.030121875 -0.00125 -0.020671875 0.27503
412 1 -0.030121875 -0.00125 -0.019490625 0.397436
413 1 -0.030121875 -0.00125 -0.018309375 0.470085
414 1 -0.030121875 -0.00125 -0.017128125 0.816239
415 1 -0.030121875 -0.00125 -0.015946875 0.702279
416 1 -0.030121875 -0.00125 -0.014765625 0.753561
417 1 -0.030121875 -0.00125 -0.013584375 0.503561
418 1 -0.030121875 -0.00125 -0.012403125 0.665242
419 1 -0.030121875 -0.00125 -0.011221875 0.378917
420 1 -0.030121875 -0.00125 -0.010040625 0.621083
421 1 -0.030121875 -0.00125 -0.008859375 0.588319
422 1 -0.030121875 -0.00125 -0.007678125 0.558405
423 1 -0.030121875 -0.00125 -0.006496875 0.659544
424 1 -0.030121875 -0.00125 -0.005315625 0.713675
425 1 -0.030121875 -0.00125 -0.004134375 0.72792
426 1 -0.030121875 -0.00125 -0.002953125 0.790598
427 1 -0.030121875 -0.00125 -0.001771875 0.688034
428 1 -0.030121875 -0.00125 -0.000590625 0.804843
429 1 -0.030121875 -0.00125 0.000590625 0.823362
430 1 -0.030121875 -0.00125 0.001771875 0.688034
431 1 -0.030121875 -0.00125 0.002953125 0.790598
432 1 -0.030121875 -0.00125 0.004134375 0.72792
433 1 -0.030121875 -0.00125 0.005315625 0.713675
434 1 -0.030121875 -0.00125 0.006496875 0.659544
435 1 -0.030121875 -0.00125 0.007678125 0.558405
436 1 -0.030121875 -0.00125 0.008859375 0.588319
437 1 -0.030121875 -0.00125 0.010040625 0.621083
438 1 -0.030121875 -0.00125 0.011221875 0.378917
439 1 -0.030121875 -0.00125 0.012403125 0.665242
440 1 -0.030121875 -0.00125 0.013584375 0.503561
441 1 -0.030121875 -0.00125 0.014765625 0.753561
442 1 -0.030121875 -0.00125 0.015946875 0.702279
443 1 -0.030121875 -0.00125 0.017128125 0.816239
444 1 -0.030121875 -0.00125 0.018309375 0.470085
445 1 -0.030121875 -0.00125 0.019490625 0.397436
446 1 -0.030121875 -0.00125 0.020671875 0.27503
447 1 -0.030121875 0.000116666666667 -0.020671875 0.27503
448 1 -0.030121875 0.000116666666667 -0.019490625 0.397436
449 1 -0.030121875 0.000116666666667 -0.018309375 0.470085
450 1 -0.030121875 0.000116666666667 -0.017128125 0.816239
451 1 -0.030121875 0.000116666666667 -0.015946875 0.702279
452 1 -0.030121875 0.000116666666667 -0.014765625 0.753561
453 1 -0.030121875 0.000116666666667 -0.013584375 0.503561
454 1 -0.030121875 0.000116666666667 -0.012403125 0.665242
455 1 -0.030121875 0.000116666666667 -0.011221875 0.378917
456 1 -0.030121875 0.000116666666667 -0.010040625 0.621083
457 1 -0.030121875 0.000116666666667 -0.008859375 0.588319
458 1 -0.030121875 0.000116666666667 -0.007678125 0.558405
459 1 -0.030121875 0.000116666666667 -0.006496875 0.659544
460 1 -0.030121875 0.000116666666667 -0.005315625 0.713675
461 1 -0.030121875 0.000116666666667 -0.004134375 0.72792
462 1 -0.030121875 0.000116666666667 -0.002953125 0.790598
463 1 -0.030121875 0.000116666666667 -0.001771875 0.688034
464 1 -0.030121875 0.000116666666667 -0.000590625 0.804843
465 1 -0.030121875 0.000116666666667 0.000590625 0.823362
466 1 -0.030121875 0.000116666666667 0.001771875 0.688034
467 1 -0.030121875 0.000116666666667 0.002953125 0.790598
468 1 -0.030121875 0.000116666666667 0.004134375 0.72792
469 1 -0.030121875 0.000116666666667 0.005315625 0.713675
470 1 -0.030121875 0.000116666666667 0.006496875 0.659544
471 1 -0.030121875 0.000116666666667 0.007678125 0.558405
472 1 -0.030121875 0.000116666666667 0.008859375 0.588319
473 1 -0.030121875 0.000116666666667 0.010040625 0.621083
474 1 -0.030121875 0.000116666666667 0.011221875 0.378917
475 1 -0.030121875 0.000116666666667 0.012403125 0.665242
476 1 -0.030121875 0.000116666666667 0.013584375 0.503561
477 1 -0.030121875 0.000116666666667 0.014765625 0.753561
478 1 -0.030121875 0.000116666666667 0.015946875 0.702279
479 1 -0.030121875 0.000116666666667 0.017128125 0.816239
480 1 -0.030121875 0.000116666666667 0.018309375 0.470085
481 1 -0.030121875 0.000116666666667 0.019490625 0.397436
482 1 -0.030121875 0.000116666666667 0.020671875 0.27503
483 1 -0.028940625 -0.00261666666667 -0.021853125 0.155303
484 1 -0.028940625 -0.00261666666667 -0.020671875 0.273881
485 1 -0.028940625 -0.00261666666667 -0.019490625 0.393162
486 1 -0.028940625 -0.00261666666667 -0.018309375 0.38604
487 1 -0.028940625 -0.00261666666667 -0.017128125 0.602564
488 1 -0.028940625 -0.00261666666667 -0.015946875 0.683761
489 1 -0.028940625 -0.00261666666667 -0.014765625 0.628205
490 1 -0.028940625 -0.00261666666667 -0.013584375 0.722222
491 1 -0.028940625 -0.00261666666667 -0.012403125 0.84188
492 1 -0.028940625 -0.00261666666667 -0.011221875 0.676638
493 1 -0.028940625 -0.00261666666667 -0.010040625 0.621083
494 1 -0.028940625 -0.00261666666667 -0.008859375 0.72792
495 1 -0.028940625 -0.00261666666667 -0.007678125 0.65812
496 1 -0.028940625 -0.00261666666667 -0.006496875 0.591881
497 1 -0.028940625 -0.00261666666667 -0.005315625 0.625356
498 1 -0.028940625 -0.00261666666667 -0.004134375 0.65812
499 1 -0.028940625 -0.00261666666667 -0.002953125 0.84188
500 1 -0.028940625 -0.00261666666667 -0.001771875 0.816239
501 1 -0.028940625 -0.00261666666667 -0.000590625 0.748718
502 1 -0.028940625 -0.00261666666667 0.000590625 0.708333
503 1 -0.028940625 -0.00261666666667 0.001771875 0.816239
504 1 -0.028940625 -0.00261666666667 0.002953125 0.84188
505 1 -0.028940625 -0.00261666666667 0.004134375 0.65812
506 1 -0.028940625 -0.00261666666667 0.005315625 0.625356
507 1 -0.028940625 -0.00261666666667 0.006496875 0.591881
508 1 -0.028940625 -0.00261666666667 0.007678125 0.65812
509 1 -0.028940625 -0.00261666666667 0.008859375 0.72792
510 1 -0.028940625 -0.00261666666667 0.010040625 0.621083
511 1 -0.028940625 -0.00261666666667 0.011221875 0.676638
512 1 -0.028940625 -0.00261666666667 0.012403125 0.84188
513 1 -0.028940625 -0.00261666666667 0.013584375 0.722222
514 1 -0.028940625 -0.00261666666667 0.014765625 0.628205
515 1 -0.028940625 -0.00261666666667 0.015946875 0.683761
516 1 -0.028940625 -0.00261666666667 0.017128125 0.602564
517 1 -0.028940625 -0.00261666666667 0.018309375 0.38604
518 1 -0.028940625 -0.00261666666667 0.019490625 0.393162
519 1 -0.028940625 -0.00261666666667 0.020671875 0.273881
520 1 -0.028940625 -0.00261666666667 0.021853125 0.155303
521 1 -0.028940625 -0.00125 -0.021853125 0.155303
522 1 -0.028940625 -0.00125 -0.020671875 0.273881
523 1 -0.028940625 -0.00125 -0.019490625 0.393162
524 1 -0.028940625 -0.00125 -0.018309375 0.38604
525 1 -0.028940625 -0.00125 -0.017128125 0.602564
526 1 -0.028940625 -0.00125 -0.015946875 0.683761
527 1 -0.028940625 -0.00125 -0.014765625 0.628205
528 1 -0.028940625 -0.00125 -0.013584375 0.722222
529 1 -0.028940625 -0.00125 -0.012403125 0.84188
530 1 -0.028940625 -0.00125 -0.011221875 0.676638
531 1 -0.028940625 -0.00125 -0.010040625 0.621083
532 1 -0.028940625 -0.00125 -0.008859375 0.72792
533 1 -0.028940625 -0.00125 -0.007678125 0.65812
534 1 -0.028940625 -0.00125 -0.006496875 0.591881
535 1 -0.028940625 -0.00125 -0.005315625 0.625356
536 1 -0.028940625 -0.00125 -0.004134375 0.65812
537 1 -0.028940625 -0.00125 -0.002953125 0.84188
538 1 -0.028940625 -0.00125 -0.001771875 0.816239
539 1 -0.028940625 -0.00125 -0.000590625 0.748718