ITEM: TIMESTEP
0
ITEM: NUMBER OF ATOMS
3080
ITEM: BOX BOUNDS ss ss ss
-3.7007399999999996e-02 3.7007399999999996e-02
-2.0002499999999999e-03 2.5000000000000004e-07
-3.7007399999999996e-02 3.7007399999999996e-02
ITEM: ATOMS id type x y z c_1
0 1 -0.037209375 -0.00125 -0.000590625 0.278590271022
1 1 -0.036028125 -0.00125 -0.007678125 1.1681248608e-06
2 1 -0.036028125 -0.00125 -0.006496875 2.1152983772e-12
3 1 -0.036028125 -0.00125 -0.005315625 0.000889151079242
4 1 -0.036028125 -0.00125 -0.004134375 0.00173431207819
5 1 -0.036028125 -0.00125 -0.002953125 0.0115320513665
6 1 -0.036028125 -0.00125 -0.001771875 0.20817089551
7 1 -0.036028125 -0.00125 -0.000590625 0.159212466208
8 1 -0.036028125 -0.00125 0.000590625 0.367994656907
9 1 -0.036028125 -0.00125 0.001771875 0.285745076887
10 1 -0.036028125 -0.00125 0.002953125 0.10890975026
11 1 -0.036028125 -0.00125 0.004134375 0.0305579854585
12 1 -0.036028125 -0.00125 0.005315625 0.00413180944364
13 1 -0.036028125 -0.00125 0.006496875 4.36484202455e-05
14 1 -0.036028125 -0.00125 0.007678125 0.00204609748178
15 1 -0.034846875 -0.00125 -0.011221875 0.0199776190064
16 1 -0.034846875 -0.00125 -0.010040625 0.176006776274
17 1 -0.034846875 -0.00125 -0.008859375 0.0846854419819
18 1 -0.034846875 -0.00125 -0.007678125 1.12381649458e-05
19 1 -0.034846875 -0.00125 -0.006496875 2.0490548598e-10
20 1 -0.034846875 -0.00125 -0.005315625 8.21986026608e-05
21 1 -0.034846875 -0.00125 -0.004134375 0.0036256396913
22 1 -0.034846875 -0.00125 -0.002953125 0.0321104399975
23 1 -0.034846875 -0.00125 -0.001771875 0.193972191278
24 1 -0.034846875 -0.00125 -0.000590625 0.308344041551
25 1 -0.034846875 -0.00125 0.000590625 0.479731215146
26 1 -0.034846875 -0.00125 0.001771875 0.388829068959
27 1 -0.034846875 -0.00125 0.002953125 0.243486134602
28 1 -0.034846875 -0.00125 0.004134375 0.0173694978812
29 1 -0.034846875 -0.00125 0.005315625 0.000503148309526
30 1 -0.034846875 -0.00125 0.006496875 0.000181421419248
31 1 -0.034846875 -0.00125 0.007678125 0.00477323472756
32 1 -0.034846875 -0.00125 0.008859375 0.226686963755
33 1 -0.034846875 -0.00125 0.010040625 0.206855938159
34 1 -0.034846875 -0.00125 0.011221875 0.00863007142477
35 1 -0.033665625 -0.00125 -0.013584375 0.0425664455968
36 1 -0.033665625 -0.00125 -0.012403125 0.0970388195791
37 1 -0.033665625 -0.00125 -0.011221875 0.033727883479
38 1 -0.033665625 -0.00125 -0.010040625 0.138114541237
39 1 -0.033665625 -0.00125 -0.008859375 0.0581909205469
40 1 -0.033665625 -0.00125 -0.007678125 0.000717017175623
41 1 -0.033665625 -0.00125 -0.006496875 3.55911268061e-05
42 1 -0.033665625 -0.00125 -0.005315625 0.000743537016627
43 1 -0.033665625 -0.00125 -0.004134375 0.0291792368081
44 1 -0.033665625 -0.00125 -0.002953125 0.162276032923
45 1 -0.033665625 -0.00125 -0.001771875 0.288866014213
46 1 -0.033665625 -0.00125 -0.000590625 0.473332679689
47 1 -0.033665625 -0.00125 0.000590625 0.513770248395
48 1 -0.033665625 -0.00125 0.001771875 0.398692553891
49 1 -0.033665625 -0.00125 0.002953125 0.298651013406
50 1 -0.033665625 -0.00125 0.004134375 0.073231505188
51 1 -0.033665625 -0.00125 0.005315625 0.00684874723074
52 1 -0.033665625 -0.00125 0.006496875 0.00117243747114
53 1 -0.033665625 -0.00125 0.007678125 0.0201756005029
54 1 -0.033665625 -0.00125 0.008859375 0.232405327798
55 1 -0.033665625 -0.00125 0.010040625 0.230264633139
56 1 -0.033665625 -0.00125 0.011221875 0.0395076911923
57 1 -0.033665625 -0.00125 0.012403125 0.215961930511
58 1 -0.033665625 -0.00125 0.013584375 0.172330080851
59 1 -0.032484375 -0.00125 -0.018309375 0.0670051683141
60 1 -0.032484375 -0.00125 -0.017128125 0.0145676478497
61 1 -0.032484375 -0.00125 -0.015946875 0.00267315083207
62 1 -0.032484375 -0.00125 -0.014765625 0.0109455158163
63 1 -0.032484375 -0.00125 -0.013584375 0.0665228049558
64 1 -0.032484375 -0.00125 -0.012403125 0.132638502383
65 1 -0.032484375 -0.00125 -0.011221875 0.0831343655324
66 1 -0.032484375 -0.00125 -0.010040625 0.119627772031
67 1 -0.032484375 -0.00125 -0.008859375 0.0429397190322
68 1 -0.032484375 -0.00125 -0.007678125 0.00545893924492
69 1 -0.032484375 -0.00125 -0.006496875 0.00533353196762
70 1 -0.032484375 -0.00125 -0.005315625 0.0127115185684
71 1 -0.032484375 -0.00125 -0.004134375 0.019578401136
72 1 -0.032484375 -0.00125 -0.002953125 0.171244352369
73 1 -0.032484375 -0.00125 -0.001771875 0.328487185969
74 1 -0.032484375 -0.00125 -0.000590625 0.394480711446
75 1 -0.032484375 -0.00125 0.000590625 0.352824966552
76 1 -0.032484375 -0.00125 0.001771875 0.28732482064
77 1 -0.032484375 -0.00125 0.002953125 0.173661403169
78 1 -0.032484375 -0.00125 0.004134375 0.0467051170114
79 1 -0.032484375 -0.00125 0.005315625 0.00478809500768
80 1 -0.032484375 -0.00125 0.006496875 0.00730681755978
81 1 -0.032484375 -0.00125 0.007678125 0.0602429268364
82 1 -0.032484375 -0.00125 0.008859375 0.318690603467
83 1 -0.032484375 -0.00125 0.010040625 0.277763059877
84 1 -0.032484375 -0.00125 0.011221875 0.126099038489
85 1 -0.032484375 -0.00125 0.012403125 0.152371031581
86 1 -0.032484375 -0.00125 0.013584375 0.174305072743
87 1 -0.032484375 -0.00125 0.014765625 0.0960932510819
88 1 -0.032484375 -0.00125 0.015946875 0.0372870426029
89 1 -0.032484375 -0.00125 0.017128125 0.0116919227323
90 1 -0.032484375 -0.00125 0.018309375 0.0159466016647
91 1 -0.031303125 -0.00125 -0.019490625 0.00492781579305
92 1 -0.031303125 -0.00125 -0.018309375 0.0478159283333
93 1 -0.031303125 -0.00125 -0.017128125 0.00130677919016
94 1 -0.031303125 -0.00125 -0.015946875 0.000495042112234
95 1 -0.031303125 -0.00125 -0.014765625 0.0355591603928
96 1 -0.031303125 -0.00125 -0.013584375 0.127421830351
97 1 -0.031303125 -0.00125 -0.012403125 0.306085324873
98 1 -0.031303125 -0.00125 -0.011221875 0.233287260903
99 1 -0.031303125 -0.00125 -0.010040625 0.118297622792
100 1 -0.031303125 -0.00125 -0.008859375 0.0945266891624
101 1 -0.031303125 -0.00125 -0.007678125 0.0264904831774
102 1 -0.031303125 -0.00125 -0.006496875 0.0320369095408
103 1 -0.031303125 -0.00125 -0.005315625 0.0417558600584
104 1 -0.031303125 -0.00125 -0.004134375 0.0378880308767
105 1 -0.031303125 -0.00125 -0.002953125 0.0818258603802
106 1 -0.031303125 -0.00125 -0.001771875 0.202410021093
107 1 -0.031303125 -0.00125 -0.000590625 0.248215369309
108 1 -0.031303125 -0.00125 0.000590625 0.241411528917
109 1 -0.031303125 -0.00125 0.001771875 0.195195732857
110 1 -0.031303125 -0.00125 0.002953125 0.0634355677972
111 1 -0.031303125 -0.00125 0.004134375 0.010536348966
112 1 -0.031303125 -0.00125 0.005315625 0.00624842511532
113 1 -0.031303125 -0.00125 0.006496875 0.00959791206712
114 1 -0.031303125 -0.00125 0.007678125 0.0330785193277
115 1 -0.031303125 -0.00125 0.008859375 0.131217848168
116 1 -0.031303125 -0.00125 0.010040625 0.236133444922
117 1 -0.031303125 -0.00125 0.011221875 0.166154647976
118 1 -0.031303125 -0.00125 0.012403125 0.147837434389
119 1 -0.031303125 -0.00125 0.013584375 0.162684393126
120 1 -0.031303125 -0.00125 0.014765625 0.0580003072803
121 1 -0.031303125 -0.00125 0.015946875 0.0120559023489
122 1 -0.031303125 -0.00125 0.017128125 0.00564385089375
123 1 -0.031303125 -0.00125 0.018309375 0.0222635468674
124 1 -0.031303125 -0.00125 0.019490625 0.00411297095818
125 1 -0.030121875 -0.00125 -0.020671875 0.0149855443562
126 1 -0.030121875 -0.00125 -0.019490625 0.018990002879
127 1 -0.030121875 -0.00125 -0.018309375 0.0413233447446
128 1 -0.030121875 -0.00125 -0.017128125 0.00839334420653
129 1 -0.030121875 -0.00125 -0.015946875 0.00293468291392
130 1 -0.030121875 -0.00125 -0.014765625 0.0198739953842
131 1 -0.030121875 -0.00125 -0.013584375 0.216522810689
132 1 -0.030121875 -0.00125 -0.012403125 0.408563234286
133 1 -0.030121875 -0.00125 -0.011221875 0.26044914795
134 1 -0.030121875 -0.00125 -0.010040625 0.122859556153
135 1 -0.030121875 -0.00125 -0.008859375 0.113500900398
136 1 -0.030121875 -0.00125 -0.007678125 0.0513338851019
137 1 -0.030121875 -0.00125 -0.006496875 0.0590447588536
138 1 -0.030121875 -0.00125 -0.005315625 0.0578119356044
139 1 -0.030121875 -0.00125 -0.004134375 0.0262895995625
140 1 -0.030121875 -0.00125 -0.002953125 0.0364584339106
141 1 -0.030121875 -0.00125 -0.001771875 0.101200859802
142 1 -0.030121875 -0.00125 -0.000590625 0.154077733778
143 1 -0.030121875 -0.00125 0.000590625 0.101093277548
144 1 -0.030121875 -0.00125 0.001771875 0.0730294946672
145 1 -0.030121875 -0.00125 0.002953125 0.011175623164
146 1 -0.030121875 -0.00125 0.004134375 0.00115521103889
147 1 -0.030121875 -0.00125 0.005315625 0.00690360820197
148 1 -0.030121875 -0.00125 0.006496875 0.0126949114737
149 1 -0.030121875 -0.00125 0.007678125 0.069178894302
150 1 -0.030121875 -0.00125 0.008859375 0.0874743611276
151 1 -0.030121875 -0.00125 0.010040625 0.100902997365
152 1 -0.030121875 -0.00125 0.011221875 0.125166120782
153 1 -0.030121875 -0.00125 0.012403125 0.0947778754264
154 1 -0.030121875 -0.00125 0.013584375 0.145767710022
155 1 -0.030121875 -0.00125 0.014765625 0.181318901637
156 1 -0.030121875 -0.00125 0.015946875 0.0367073059604
157 1 -0.030121875 -0.00125 0.017128125 0.00643062070712
158 1 -0.030121875 -0.00125 0.018309375 0.00548082186046
159 1 -0.030121875 -0.00125 0.019490625 0.00276098883607
160 1 -0.030121875 -0.00125 0.020671875 0.00436656354987
161 1 -0.028940625 -0.00125 -0.021853125 0.135689338708
162 1 -0.028940625 -0.00125 -0.020671875 0.0527279776352
163 1 -0.028940625 -0.00125 -0.019490625 0.052440890741
164 1 -0.028940625 -0.00125 -0.018309375 0.0537265751956
165 1 -0.028940625 -0.00125 -0.017128125 0.0145336865857
166 1 -0.028940625 -0.00125 -0.015946875 0.00392841296566
167 1 -0.028940625 -0.00125 -0.014765625 0.019531664274
168 1 -0.028940625 -0.00125 -0.013584375 0.204014372255
169 1 -0.028940625 -0.00125 -0.012403125 0.379895786221
170 1 -0.028940625 -0.00125 -0.011221875 0.260723990516
171 1 -0.028940625 -0.00125 -0.010040625 0.0974121978642
172 1 -0.028940625 -0.00125 -0.008859375 0.0992725511128
173 1 -0.028940625 -0.00125 -0.007678125 0.0344648420964
174 1 -0.028940625 -0.00125 -0.006496875 0.020682287607
175 1 -0.028940625 -0.00125 -0.005315625 0.00809145751222
176 1 -0.028940625 -0.00125 -0.004134375 0.00861636336307
177 1 -0.028940625 -0.00125 -0.002953125 0.0233815041666
178 1 -0.028940625 -0.00125 -0.001771875 0.0491492101199
179 1 -0.028940625 -0.00125 -0.000590625 0.0552948628464
180 1 -0.028940625 -0.00125 0.000590625 0.0153276690313
181 1 -0.028940625 -0.00125 0.001771875 0.00145467663477
182 1 -0.028940625 -0.00125 0.002953125 0.000322762310851
183 1 -0.028940625 -0.00125 0.004134375 1.54782345182e-05
184 1 -0.028940625 -0.00125 0.005315625 0.000640444276919
185 1 -0.028940625 -0.00125 0.006496875 0.0126916926273
186 1 -0.028940625 -0.00125 0.007678125 0.091147548862
187 1 -0.028940625 -0.00125 0.008859375 0.114003279091
188 1 -0.028940625 -0.00125 0.010040625 0.0550288230635
189 1 -0.028940625 -0.00125 0.011221875 0.0597510758212
190 1 -0.028940625 -0.00125 0.012403125 0.106572179836
191 1 -0.028940625 -0.00125 0.013584375 0.109874388465
192 1 -0.028940625 -0.00125 0.014765625 0.140254839384
193 1 -0.028940625 -0.00125 0.015946875 0.100238928819
194 1 -0.028940625 -0.00125 0.017128125 0.0211380884166
195 1 -0.028940625 -0.00125 0.018309375 0.00827703021588
196 1 -0.028940625 -0.00125 0.019490625 0.0134677786397
197 1 -0.028940625 -0.00125 0.020671875 0.044869829879
198 1 -0.028940625 -0.00125 0.021853125 0.136436694633
199 1 -0.027759375 -0.00125 -0.024215625 4.90091364863e-06
200 1 -0.027759375 -0.00125 -0.023034375 0.00327444402591
201 1 -0.027759375 -0.00125 -0.021853125 0.0993114922655
202 1 -0.027759375 -0.00125 -0.020671875 0.10448899265
203 1 -0.027759375 -0.00125 -0.019490625 0.0529681871201
204 1 -0.027759375 -0.00125 -0.018309375 0.0215891399446
205 1 -0.027759375 -0.00125 -0.017128125 0.00943561360399
206 1 -0.027759375 -0.00125 -0.015946875 0.00387224801637
207 1 -0.027759375 -0.00125 -0.014765625 0.00572816383969
208 1 -0.027759375 -0.00125 -0.013584375 0.151389910347
209 1 -0.027759375 -0.00125 -0.012403125 0.402131356464
210 1 -0.027759375 -0.00125 -0.011221875 0.355839536191
211 1 -0.027759375 -0.00125 -0.010040625 0.0649881425793
212 1 -0.027759375 -0.00125 -0.008859375 0.0403358868817
213 1 -0.027759375 -0.00125 -0.007678125 0.00331589061355
214 1 -0.027759375 -0.00125 -0.006496875 0.00216713739483
215 1 -0.027759375 -0.00125 -0.005315625 0.000470936855204
216 1 -0.027759375 -0.00125 -0.004134375 0.000980521471392
217 1 -0.027759375 -0.00125 -0.002953125 0.00528833670859
218 1 -0.027759375 -0.00125 -0.001771875 0.0105390541094
219 1 -0.027759375 -0.00125 -0.000590625 0.0554934665108
220 1 -0.027759375 -0.00125 0.000590625 0.0200629316388
221 1 -0.027759375 -0.00125 0.001771875 0.00119395910081
222 1 -0.027759375 -0.00125 0.002953125 0.000276664637673
223 1 -0.027759375 -0.00125 0.004134375 0.000457662746586
224 1 -0.027759375 -0.00125 0.005315625 0.0023351012075
225 1 -0.027759375 -0.00125 0.006496875 0.00273901646756
226 1 -0.027759375 -0.00125 0.007678125 0.0211885665747
227 1 -0.027759375 -0.00125 0.008859375 0.0143552684079
228 1 -0.027759375 -0.00125 0.010040625 0.0473571966335
229 1 -0.027759375 -0.00125 0.011221875 0.043995182057
230 1 -0.027759375 -0.00125 0.012403125 0.049644804235
231 1 -0.027759375 -0.00125 0.013584375 0.124033929453
232 1 -0.027759375 -0.00125 0.014765625 0.130820977904
233 1 -0.027759375 -0.00125 0.015946875 0.0477690771256
234 1 -0.027759375 -0.00125 0.017128125 0.0305497014739
235 1 -0.027759375 -0.00125 0.018309375 0.00782308920368
236 1 -0.027759375 -0.00125 0.019490625 0.0281783292642
237 1 -0.027759375 -0.00125 0.020671875 0.0192274811629
238 1 -0.027759375 -0.00125 0.021853125 0.11282603653
239 1 -0.027759375 -0.00125 0.023034375 0.110744555881
240 1 -0.027759375 -0.00125 0.024215625 0.00265031321624
241 1 -0.026578125 -0.00125 -0.026578125 0.000172919414223
242 1 -0.026578125 -0.00125 -0.025396875 2.04339529004e-05
243 1 -0.026578125 -0.00125 -0.024215625 0.00127526907793
244 1 -0.026578125 -0.00125 -0.023034375 0.0018023514141
245 1 -0.026578125 -0.00125 -0.021853125 0.0307817624114
246 1 -0.026578125 -0.00125 -0.020671875 0.0958942452071
247 1 -0.026578125 -0.00125 -0.019490625 0.0427333803631
248 1 -0.026578125 -0.00125 -0.018309375 0.0292138071343
249 1 -0.026578125 -0.00125 -0.017128125 0.0193105526213
250 1 -0.026578125 -0.00125 -0.015946875 0.0121621108745
251 1 -0.026578125 -0.00125 -0.014765625 0.0356960515897
252 1 -0.026578125 -0.00125 -0.013584375 0.128211739076
253 1 -0.026578125 -0.00125 -0.012403125 0.415364170149
254 1 -0.026578125 -0.00125 -0.011221875 0.419821095908
255 1 -0.026578125 -0.00125 -0.010040625 0.114274474623
256 1 -0.026578125 -0.00125 -0.008859375 0.0428009545113
257 1 -0.026578125 -0.00125 -0.007678125 0.0150754723733
258 1 -0.026578125 -0.00125 -0.006496875 0.0415071494395
259 1 -0.026578125 -0.00125 -0.005315625 0.0737018986746
260 1 -0.026578125 -0.00125 -0.004134375 0.0527762285314
261 1 -0.026578125 -0.00125 -0.002953125 0.156919272138
262 1 -0.026578125 -0.00125 -0.001771875 0.20869697857
263 1 -0.026578125 -0.00125 -0.000590625 0.270131751248
264 1 -0.026578125 -0.00125 0.000590625 0.216187083533
265 1 -0.026578125 -0.00125 0.001771875 0.0888203368154
266 1 -0.026578125 -0.00125 0.002953125 0.0776016897703
267 1 -0.026578125 -0.00125 0.004134375 0.134335415662
268 1 -0.026578125 -0.00125 0.005315625 0.0792986605727
269 1 -0.026578125 -0.00125 0.006496875 0.0473372518967
270 1 -0.026578125 -0.00125 0.007678125 0.043494051083
271 1 -0.026578125 -0.00125 0.008859375 0.0502148502662
272 1 -0.026578125 -0.00125 0.010040625 0.0571287134144
273 1 -0.026578125 -0.00125 0.011221875 0.0789566820274
274 1 -0.026578125 -0.00125 0.012403125 0.0968022448162
275 1 -0.026578125 -0.00125 0.013584375 0.104548039242
276 1 -0.026578125 -0.00125 0.014765625 0.0972889675701
277 1 -0.026578125 -0.00125 0.015946875 0.109455764113
278 1 -0.026578125 -0.00125 0.017128125 0.0840727562223
279 1 -0.026578125 -0.00125 0.018309375 0.0485288936638
280 1 -0.026578125 -0.00125 0.019490625 0.0176781268444
281 1 -0.026578125 -0.00125 0.020671875 0.0204864558941
282 1 -0.026578125 -0.00125 0.021853125 0.0349590999011
283 1 -0.026578125 -0.00125 0.023034375 0.00884348566274
284 1 -0.026578125 -0.00125 0.024215625 0.00210680912242
285 1 -0.026578125 -0.00125 0.025396875 5.75330566583e-07
286 1 -0.026578125 -0.00125 0.026578125 2.30981677723e-05
287 1 -0.025396875 -0.00125 -0.026578125 0.000816608686889
288 1 -0.025396875 -0.00125 -0.025396875 0.00222848522314
289 1 -0.025396875 -0.00125 -0.024215625 0.00515032110612
290 1 -0.025396875 -0.00125 -0.023034375 0.00461495286831
291 1 -0.025396875 -0.00125 -0.021853125 0.0136751306207
292 1 -0.025396875 -0.00125 -0.020671875 0.0805712342005
293 1 -0.025396875 -0.00125 -0.019490625 0.0798096840397
294 1 -0.025396875 -0.00125 -0.018309375 0.0299216565323
295 1 -0.025396875 -0.00125 -0.017128125 0.0453075213258
296 1 -0.025396875 -0.00125 -0.015946875 0.0303650491574
297 1 -0.025396875 -0.00125 -0.014765625 0.0487943977718
298 1 -0.025396875 -0.00125 -0.013584375 0.102330959403
299 1 -0.025396875 -0.00125 -0.012403125 0.339246641126
300 1 -0.025396875 -0.00125 -0.011221875 0.354406582197
301 1 -0.025396875 -0.00125 -0.010040625 0.195701552418
302 1 -0.025396875 -0.00125 -0.008859375 0.241984564244
303 1 -0.025396875 -0.00125 -0.007678125 0.246167577044
304 1 -0.025396875 -0.00125 -0.006496875 0.147647333075
305 1 -0.025396875 -0.00125 -0.005315625 0.226123535686
306 1 -0.025396875 -0.00125 -0.004134375 0.187634771099
307 1 -0.025396875 -0.00125 -0.002953125 0.335449005696
308 1 -0.025396875 -0.00125 -0.001771875 0.39971349528
309 1 -0.025396875 -0.00125 -0.000590625 0.368876706427
310 1 -0.025396875 -0.00125 0.000590625 0.333237029273
311 1 -0.025396875 -0.00125 0.001771875 0.25407464862
312 1 -0.025396875 -0.00125 0.002953125 0.331966121324
313 1 -0.025396875 -0.00125 0.004134375 0.365480667767
314 1 -0.025396875 -0.00125 0.005315625 0.343758937432
315 1 -0.025396875 -0.00125 0.006496875 0.300806311792
316 1 -0.025396875 -0.00125 0.007678125 0.176925775031
317 1 -0.025396875 -0.00125 0.008859375 0.19117365652
318 1 -0.025396875 -0.00125 0.010040625 0.208792501676
319 1 -0.025396875 -0.00125 0.011221875 0.251765816591
320 1 -0.025396875 -0.00125 0.012403125 0.208865030462
321 1 -0.025396875 -0.00125 0.013584375 0.189605779888
322 1 -0.025396875 -0.00125 0.014765625 0.0857411806752
323 1 -0.025396875 -0.00125 0.015946875 0.0886834685146
324 1 -0.025396875 -0.00125 0.017128125 0.127661049447
325 1 -0.025396875 -0.00125 0.018309375 0.108704379944
326 1 -0.025396875 -0.00125 0.019490625 0.0505137265787
327 1 -0.025396875 -0.00125 0.020671875 0.0505010325763
328 1 -0.025396875 -0.00125 0.021853125 0.0192556677238
329 1 -0.025396875 -0.00125 0.023034375 0.00524982488512
330 1 -0.025396875 -0.00125 0.024215625 0.00082725345439
331 1 -0.025396875 -0.00125 0.025396875 1.1291539556e-06
332 1 -0.025396875 -0.00125 0.026578125 3.49786168632e-07
333 1 -0.024215625 -0.00125 -0.027759375 0.00809721696071
334 1 -0.024215625 -0.00125 -0.026578125 0.00752178983377
335 1 -0.024215625 -0.00125 -0.025396875 0.0211047845643
336 1 -0.024215625 -0.00125 -0.024215625 0.00977318601986
337 1 -0.024215625 -0.00125 -0.023034375 0.00595261343796
338 1 -0.024215625 -0.00125 -0.021853125 0.0102453167394
339 1 -0.024215625 -0.00125 -0.020671875 0.0496552648672
340 1 -0.024215625 -0.00125 -0.019490625 0.123745658965
341 1 -0.024215625 -0.00125 -0.018309375 0.0712503089956
342 1 -0.024215625 -0.00125 -0.017128125 0.0526663181781
343 1 -0.024215625 -0.00125 -0.015946875 0.0447908938276
344 1 -0.024215625 -0.00125 -0.014765625 0.0444061711404
345 1 -0.024215625 -0.00125 -0.013584375 0.110127562749
346 1 -0.024215625 -0.00125 -0.012403125 0.258083529601
347 1 -0.024215625 -0.00125 -0.011221875 0.312362194389
348 1 -0.024215625 -0.00125 -0.010040625 0.22162973776
349 1 -0.024215625 -0.00125 -0.008859375 0.418643261144
350 1 -0.024215625 -0.00125 -0.007678125 0.47147358576
351 1 -0.024215625 -0.00125 -0.006496875 0.243590457007
352 1 -0.024215625 -0.00125 -0.005315625 0.132945034332
353 1 -0.024215625 -0.00125 -0.004134375 0.100947338113
354 1 -0.024215625 -0.00125 -0.002953125 0.179727092362
355 1 -0.024215625 -0.00125 -0.001771875 0.229958835262
356 1 -0.024215625 -0.00125 -0.000590625 0.220088880853
357 1 -0.024215625 -0.00125 0.000590625 0.226648920269
358 1 -0.024215625 -0.00125 0.001771875 0.259996489989
359 1 -0.024215625 -0.00125 0.002953125 0.379512216968
360 1 -0.024215625 -0.00125 0.004134375 0.384381750813
361 1 -0.024215625 -0.00125 0.005315625 0.405585797322
362 1 -0.024215625 -0.00125 0.006496875 0.231303323811
363 1 -0.024215625 -0.00125 0.007678125 0.114128102269
364 1 -0.024215625 -0.00125 0.008859375 0.13168595915
365 1 -0.024215625 -0.00125 0.010040625 0.233387843572
366 1 -0.024215625 -0.00125 0.011221875 0.38361402383
367 1 -0.024215625 -0.00125 0.012403125 0.2989301602
368 1 -0.024215625 -0.00125 0.013584375 0.237474510242
369 1 -0.024215625 -0.00125 0.014765625 0.110597219645
370 1 -0.024215625 -0.00125 0.015946875 0.0906882741028
371 1 -0.024215625 -0.00125 0.017128125 0.0726109784662
372 1 -0.024215625 -0.00125 0.018309375 0.113119084108
373 1 -0.024215625 -0.00125 0.019490625 0.0562306029037
374 1 -0.024215625 -0.00125 0.020671875 0.0543797952466
375 1 -0.024215625 -0.00125 0.021853125 0.0147211208008
376 1 -0.024215625 -0.00125 0.023034375 0.00272104217679
377 1 -0.024215625 -0.00125 0.024215625 0.00178452639761
378 1 -0.024215625 -0.00125 0.025396875 0.00428874846215
379 1 -0.024215625 -0.00125 0.026578125 1.12254408266e-05
380 1 -0.024215625 -0.00125 0.027759375 1.90713580448e-05
381 1 -0.023034375 -0.00125 -0.027759375 0.203771434821
382 1 -0.023034375 -0.00125 -0.026578125 0.190701486017
383 1 -0.023034375 -0.00125 -0.025396875 0.117950633927
384 1 -0.023034375 -0.00125 -0.024215625 0.0206070396292
385 1 -0.023034375 -0.00125 -0.023034375 0.0519262930385
386 1 -0.023034375 -0.00125 -0.021853125 0.0675493892314
387 1 -0.023034375 -0.00125 -0.020671875 0.0672388915365
388 1 -0.023034375 -0.00125 -0.019490625 0.131717919086
389 1 -0.023034375 -0.00125 -0.018309375 0.128716055012
390 1 -0.023034375 -0.00125 -0.017128125 0.0391151435819
391 1 -0.023034375 -0.00125 -0.015946875 0.0701936735913
392 1 -0.023034375 -0.00125 -0.014765625 0.0376782410414
393 1 -0.023034375 -0.00125 -0.013584375 0.202494996978
394 1 -0.023034375 -0.00125 -0.012403125 0.229840287339
395 1 -0.023034375 -0.00125 -0.011221875 0.319061887488
396 1 -0.023034375 -0.00125 -0.010040625 0.281312661924
397 1 -0.023034375 -0.00125 -0.008859375 0.330595163428
398 1 -0.023034375 -0.00125 -0.007678125 0.429750778879
399 1 -0.023034375 -0.00125 -0.006496875 0.234734019049
400 1 -0.023034375 -0.00125 -0.005315625 0.117205849686
401 1 -0.023034375 -0.00125 -0.004134375 0.0621059660569
402 1 -0.023034375 -0.00125 -0.002953125 0.0742667666026
403 1 -0.023034375 -0.00125 -0.001771875 0.199279010083
404 1 -0.023034375 -0.00125 -0.000590625 0.245456557413
405 1 -0.023034375 -0.00125 0.000590625 0.238311721081
406 1 -0.023034375 -0.00125 0.001771875 0.176541037818
407 1 -0.023034375 -0.00125 0.002953125 0.267324014118
408 1 -0.023034375 -0.00125 0.004134375 0.165070073739
409 1 -0.023034375 -0.00125 0.005315625 0.327338116319
410 1 -0.023034375 -0.00125 0.006496875 0.188478412203
411 1 -0.023034375 -0.00125 0.007678125 0.0762773911169
412 1 -0.023034375 -0.00125 0.008859375 0.0936497930453
413 1 -0.023034375 -0.00125 0.010040625 0.27464499674
414 1 -0.023034375 -0.00125 0.011221875 0.408443577933
415 1 -0.023034375 -0.00125 0.012403125 0.451379400848
416 1 -0.023034375 -0.00125 0.013584375 0.379365720553
417 1 -0.023034375 -0.00125 0.014765625 0.291764327952
418 1 -0.023034375 -0.00125 0.015946875 0.26692515784
419 1 -0.023034375 -0.00125 0.017128125 0.286586483691
420 1 -0.023034375 -0.00125 0.018309375 0.114676274693
421 1 -0.023034375 -0.00125 0.019490625 0.044455590523
422 1 -0.023034375 -0.00125 0.020671875 0.0679460417458
423 1 -0.023034375 -0.00125 0.021853125 0.114346847517
424 1 -0.023034375 -0.00125 0.023034375 0.013819264174
425 1 -0.023034375 -0.00125 0.024215625 0.00369957883126
426 1 -0.023034375 -0.00125 0.025396875 0.00938444074824
427 1 -0.023034375 -0.00125 0.026578125 0.00583183600443
428 1 -0.023034375 -0.00125 0.027759375 0.021950485017
429 1 -0.021853125 -0.00125 -0.028940625 0.161195316442
430 1 -0.021853125 -0.00125 -0.027759375 0.348694736806
431 1 -0.021853125 -0.00125 -0.026578125 0.219894836942
432 1 -0.021853125 -0.00125 -0.025396875 0.0936661039418
433 1 -0.021853125 -0.00125 -0.024215625 0.0947705900861
434 1 -0.021853125 -0.00125 -0.023034375 0.242862582741
435 1 -0.021853125 -0.00125 -0.021853125 0.209111585643
436 1 -0.021853125 -0.00125 -0.020671875 0.185245687365
437 1 -0.021853125 -0.00125 -0.019490625 0.229500393364
438 1 -0.021853125 -0.00125 -0.018309375 0.255059644255
439 1 -0.021853125 -0.00125 -0.017128125 0.126059511466
440 1 -0.021853125 -0.00125 -0.015946875 0.179097017281
441 1 -0.021853125 -0.00125 -0.014765625 0.194829719268
442 1 -0.021853125 -0.00125 -0.013584375 0.202161126475
443 1 -0.021853125 -0.00125 -0.012403125 0.224573572064
444 1 -0.021853125 -0.00125 -0.011221875 0.276697046366
445 1 -0.021853125 -0.00125 -0.010040625 0.421704886624
446 1 -0.021853125 -0.00125 -0.008859375 0.473856051902
447 1 -0.021853125 -0.00125 -0.007678125 0.450298560583
448 1 -0.021853125 -0.00125 -0.006496875 0.284978176799
449 1 -0.021853125 -0.00125 -0.005315625 0.143288745047
450 1 -0.021853125 -0.00125 -0.004134375 0.0822701108198
451 1 -0.021853125 -0.00125 -0.002953125 0.0432068823669
452 1 -0.021853125 -0.00125 -0.001771875 0.139482491241
453 1 -0.021853125 -0.00125 -0.000590625 0.151402781891
454 1 -0.021853125 -0.00125 0.000590625 0.133378682419
455 1 -0.021853125 -0.00125 0.001771875 0.0794915583793
456 1 -0.021853125 -0.00125 0.002953125 0.0645312982688
457 1 -0.021853125 -0.00125 0.004134375 0.123159019786
458 1 -0.021853125 -0.00125 0.005315625 0.259778102594
459 1 -0.021853125 -0.00125 0.006496875 0.11716013745
460 1 -0.021853125 -0.00125 0.007678125 0.112551791096
461 1 -0.021853125 -0.00125 0.008859375 0.134262209045
462 1 -0.021853125 -0.00125 0.010040625 0.290745023637
463 1 -0.021853125 -0.00125 0.011221875 0.415445228474
464 1 -0.021853125 -0.00125 0.012403125 0.50255797663
465 1 -0.021853125 -0.00125 0.013584375 0.373051597885
466 1 -0.021853125 -0.00125 0.014765625 0.366281942944
467 1 -0.021853125 -0.00125 0.015946875 0.178912013197
468 1 -0.021853125 -0.00125 0.017128125 0.151773904805
469 1 -0.021853125 -0.00125 0.018309375 0.0941370007206
470 1 -0.021853125 -0.00125 0.019490625 0.205581306647
471 1 -0.021853125 -0.00125 0.020671875 0.2041733299
472 1 -0.021853125 -0.00125 0.021853125 0.10882478088
473 1 -0.021853125 -0.00125 0.023034375 0.0810547080337
474 1 -0.021853125 -0.00125 0.024215625 0.0942288989716
475 1 -0.021853125 -0.00125 0.025396875 0.0707573847218
476 1 -0.021853125 -0.00125 0.026578125 0.142650702527
477 1 -0.021853125 -0.00125 0.027759375 0.235953024348
478 1 -0.021853125 -0.00125 0.028940625 0.0966375487979
479 1 -0.020671875 -0.00125 -0.030121875 0.00264130612891
480 1 -0.020671875 -0.00125 -0.028940625 0.0204025834032
481 1 -0.020671875 -0.00125 -0.027759375 0.186024939523
482 1 -0.020671875 -0.00125 -0.026578125 0.144405699548
483 1 -0.020671875 -0.00125 -0.025396875 0.143479503763
484 1 -0.020671875 -0.00125 -0.024215625 0.186223493802
485 1 -0.020671875 -0.00125 -0.023034375 0.28149426462
486 1 -0.020671875 -0.00125 -0.021853125 0.172385746334
487 1 -0.020671875 -0.00125 -0.020671875 0.202793035776
488 1 -0.020671875 -0.00125 -0.019490625 0.383678374429
489 1 -0.020671875 -0.00125 -0.018309375 0.313322438595
490 1 -0.020671875 -0.00125 -0.017128125 0.277087901161
491 1 -0.020671875 -0.00125 -0.015946875 0.320248869114
492 1 -0.020671875 -0.00125 -0.014765625 0.41817219727
493 1 -0.020671875 -0.00125 -0.013584375 0.217833520293
494 1 -0.020671875 -0.00125 -0.012403125 0.22100465303
495 1 -0.020671875 -0.00125 -0.011221875 0.333578217429
496 1 -0.020671875 -0.00125 -0.010040625 0.38486645438
497 1 -0.020671875 -0.00125 -0.008859375 0.437327426118
498 1 -0.020671875 -0.00125 -0.007678125 0.433759361117
499 1 -0.020671875 -0.00125 -0.006496875 0.419031674337
500 1 -0.020671875 -0.00125 -0.005315625 0.262749718775
501 1 -0.020671875 -0.00125 -0.004134375 0.0761579569441
502 1 -0.020671875 -0.00125 -0.002953125 0.00784032612587
503 1 -0.020671875 -0.00125 -0.001771875 0.0311448483634
504 1 -0.020671875 -0.00125 -0.000590625 0.0806363286082
505 1 -0.020671875 -0.00125 0.000590625 0.0895003762769
506 1 -0.020671875 -0.00125 0.001771875 0.0636588922212
507 1 -0.020671875 -0.00125 0.002953125 0.0715994360687
508 1 -0.020671875 -0.00125 0.004134375 0.0779227957694
509 1 -0.020671875 -0.00125 0.005315625 0.189644456429
510 1 -0.020671875 -0.00125 0.006496875 0.0684552728389
511 1 -0.020671875 -0.00125 0.007678125 0.140738383364
512 1 -0.020671875 -0.00125 0.008859375 0.385374410177
513 1 -0.020671875 -0.00125 0.010040625 0.47912549742
514 1 -0.020671875 -0.00125 0.011221875 0.615762433385
515 1 -0.020671875 -0.00125 0.012403125 0.489185079822
516 1 -0.020671875 -0.00125 0.013584375 0.446746682683
517 1 -0.020671875 -0.00125 0.014765625 0.23245292072
518 1 -0.020671875 -0.00125 0.015946875 0.092716426366
519 1 -0.020671875 -0.00125 0.017128125 0.0920509768209
520 1 -0.020671875 -0.00125 0.018309375 0.191372751768
521 1 -0.020671875 -0.00125 0.019490625 0.428361453724
522 1 -0.020671875 -0.00125 0.020671875 0.459119075301
523 1 -0.020671875 -0.00125 0.021853125 0.214629347265
524 1 -0.020671875 -0.00125 0.023034375 0.247574757243
525 1 -0.020671875 -0.00125 0.024215625 0.264781970095
526 1 -0.020671875 -0.00125 0.025396875 0.213518143009
527 1 -0.020671875 -0.00125 0.026578125 0.14244700699
528 1 -0.020671875 -0.00125 0.027759375 0.145562364388
529 1 -0.020671875 -0.00125 0.028940625 0.029450771504
530 1 -0.020671875 -0.00125 0.030121875 0.0240927385279