ITEM: TIMESTEP
0
ITEM: NUMBER OF ATOMS
3080
ITEM: BOX BOUNDS ss ss ss
-3.7007399999999996e-02 3.7007399999999996e-02
-2.0002499999999999e-03 2.5000000000000004e-07
-3.7007399999999996e-02 3.7007399999999996e-02
ITEM: ATOMS id type x y z c_1
0 1 -0.037209375 -0.0012499999999999998 -0.0005906250000000009 9.929937125847752e-220
1 1 -0.036028124999999994 -0.0012499999999999998 -0.0076781249999999975 0.0
2 1 -0.036028124999999994 -0.0012499999999999998 -0.006496874999999999 0.0
3 1 -0.036028124999999994 -0.0012499999999999998 -0.005315625000000001 0.0
4 1 -0.036028124999999994 -0.0012499999999999998 -0.004134374999999999 0.0
5 1 -0.036028124999999994 -0.0012499999999999998 -0.0029531249999999974 0.0
6 1 -0.036028124999999994 -0.0012499999999999998 -0.0017718750000000026 0.0
7 1 -0.036028124999999994 -0.0012499999999999998 -0.0005906250000000009 0.0
8 1 -0.036028124999999994 -0.0012499999999999998 0.0005906250000000009 0.0
9 1 -0.036028124999999994 -0.0012499999999999998 0.0017718750000000026 0.0
10 1 -0.036028124999999994 -0.0012499999999999998 0.0029531250000000044 0.0
11 1 -0.036028124999999994 -0.0012499999999999998 0.004134374999999999 0.0
12 1 -0.036028124999999994 -0.0012499999999999998 0.005315625000000001 0.0
13 1 -0.036028124999999994 -0.0012499999999999998 0.006496875000000003 0.0
14 1 -0.036028124999999994 -0.0012499999999999998 0.0076781249999999975 2.275855265379459e-23
15 1 -0.034846875 -0.0012499999999999998 -0.011221875 0.0
16 1 -0.034846875 -0.0012499999999999998 -0.010040625000000001 0.0
17 1 -0.034846875 -0.0012499999999999998 -0.008859375 0.0
18 1 -0.034846875 -0.0012499999999999998 -0.0076781249999999975 4.3436583664671926e-94
19 1 -0.034846875 -0.0012499999999999998 -0.006496874999999999 0.0
20 1 -0.034846875 -0.0012499999999999998 -0.005315625000000001 0.0
21 1 -0.034846875 -0.0012499999999999998 -0.004134374999999999 0.0
22 1 -0.034846875 -0.0012499999999999998 -0.0029531249999999974 0.0
23 1 -0.034846875 -0.0012499999999999998 -0.0017718750000000026 0.0
24 1 -0.034846875 -0.0012499999999999998 -0.0005906250000000009 0.0
25 1 -0.034846875 -0.0012499999999999998 0.0005906250000000009 0.0
26 1 -0.034846875 -0.0012499999999999998 0.0017718750000000026 0.0
27 1 -0.034846875 -0.0012499999999999998 0.0029531250000000044 0.0
28 1 -0.034846875 -0.0012499999999999998 0.004134374999999999 0.0
29 1 -0.034846875 -0.0012499999999999998 0.005315625000000001 0.0
30 1 -0.034846875 -0.0012499999999999998 0.006496875000000003 0.0
31 1 -0.034846875 -0.0012499999999999998 0.0076781249999999975 1.3660036148808585e-45
32 1 -0.034846875 -0.0012499999999999998 0.008859375 1.383560375992434e-12
33 1 -0.034846875 -0.0012499999999999998 0.010040625000000001 4.832387569200551e-13
34 1 -0.034846875 -0.0012499999999999998 0.011221875000000003 0.002933194432709806
35 1 -0.033665625000000005 -0.0012499999999999998 -0.013584375 0.0
36 1 -0.033665625000000005 -0.0012499999999999998 -0.012403124999999997 0.0
37 1 -0.033665625000000005 -0.0012499999999999998 -0.011221875 0.0
38 1 -0.033665625000000005 -0.0012499999999999998 -0.010040625000000001 0.0
39 1 -0.033665625000000005 -0.0012499999999999998 -0.008859375 1.6654069665790593e-78
40 1 -0.033665625000000005 -0.0012499999999999998 -0.0076781249999999975 4.4861227919077806e-38
41 1 -0.033665625000000005 -0.0012499999999999998 -0.006496874999999999 0.0
42 1 -0.033665625000000005 -0.0012499999999999998 -0.005315625000000001 0.0
43 1 -0.033665625000000005 -0.0012499999999999998 -0.004134374999999999 0.0
44 1 -0.033665625000000005 -0.0012499999999999998 -0.0029531249999999974 0.0
45 1 -0.033665625000000005 -0.0012499999999999998 -0.0017718750000000026 0.0
46 1 -0.033665625000000005 -0.0012499999999999998 -0.0005906250000000009 0.0
47 1 -0.033665625000000005 -0.0012499999999999998 0.0005906250000000009 0.0
48 1 -0.033665625000000005 -0.0012499999999999998 0.0017718750000000026 0.0
49 1 -0.033665625000000005 -0.0012499999999999998 0.0029531250000000044 0.0
50 1 -0.033665625000000005 -0.0012499999999999998 0.004134374999999999 0.0
51 1 -0.033665625000000005 -0.0012499999999999998 0.005315625000000001 0.0
52 1 -0.033665625000000005 -0.0012499999999999998 0.006496875000000003 0.0
53 1 -0.033665625000000005 -0.0012499999999999998 0.0076781249999999975 2.5103094127290567e-59
54 1 -0.033665625000000005 -0.0012499999999999998 0.008859375 1.1217797969126598e-22
55 1 -0.033665625000000005 -0.0012499999999999998 0.010040625000000001 4.7711881223115336e-14
56 1 -0.033665625000000005 -0.0012499999999999998 0.011221875000000003 0.0026945467108463383
57 1 -0.033665625000000005 -0.0012499999999999998 0.012403125000000004 7.381093026088034e-05
58 1 -0.033665625000000005 -0.0012499999999999998 0.013584375 1.1908598300051446e-209
59 1 -0.032484374999999996 -0.0012499999999999998 -0.018309375 0.0
60 1 -0.032484374999999996 -0.0012499999999999998 -0.017128124999999998 0.0
61 1 -0.032484374999999996 -0.0012499999999999998 -0.015946875 0.0
62 1 -0.032484374999999996 -0.0012499999999999998 -0.014765625000000001 0.0
63 1 -0.032484374999999996 -0.0012499999999999998 -0.013584375 0.0
64 1 -0.032484374999999996 -0.0012499999999999998 -0.012403124999999997 0.0
65 1 -0.032484374999999996 -0.0012499999999999998 -0.011221875 2.987682099987448e-264
66 1 -0.032484374999999996 -0.0012499999999999998 -0.010040625000000001 4.5496833158668635e-28
67 1 -0.032484374999999996 -0.0012499999999999998 -0.008859375 5.795678080470255e-17
68 1 -0.032484374999999996 -0.0012499999999999998 -0.0076781249999999975 7.487935067698975e-56
69 1 -0.032484374999999996 -0.0012499999999999998 -0.006496874999999999 0.0
70 1 -0.032484374999999996 -0.0012499999999999998 -0.005315625000000001 0.0
71 1 -0.032484374999999996 -0.0012499999999999998 -0.004134374999999999 0.0
72 1 -0.032484374999999996 -0.0012499999999999998 -0.0029531249999999974 0.0
73 1 -0.032484374999999996 -0.0012499999999999998 -0.0017718750000000026 0.0
74 1 -0.032484374999999996 -0.0012499999999999998 -0.0005906250000000009 0.0
75 1 -0.032484374999999996 -0.0012499999999999998 0.0005906250000000009 0.0
76 1 -0.032484374999999996 -0.0012499999999999998 0.0017718750000000026 0.0
77 1 -0.032484374999999996 -0.0012499999999999998 0.0029531250000000044 0.0
78 1 -0.032484374999999996 -0.0012499999999999998 0.004134374999999999 0.0
79 1 -0.032484374999999996 -0.0012499999999999998 0.005315625000000001 0.0
80 1 -0.032484374999999996 -0.0012499999999999998 0.006496875000000003 0.0
81 1 -0.032484374999999996 -0.0012499999999999998 0.0076781249999999975 1.5149479727587058e-186
82 1 -0.032484374999999996 -0.0012499999999999998 0.008859375 1.2311298220684193e-11
83 1 -0.032484374999999996 -0.0012499999999999998 0.010040625000000001 8.447282694095015e-10
84 1 -0.032484374999999996 -0.0012499999999999998 0.011221875000000003 8.791177049140397e-05
85 1 -0.032484374999999996 -0.0012499999999999998 0.012403125000000004 1.0825710337632892e-08
86 1 -0.032484374999999996 -0.0012499999999999998 0.013584375 6.421564480905246e-99
87 1 -0.032484374999999996 -0.0012499999999999998 0.014765625000000001 1.554916188369784e-23
88 1 -0.032484374999999996 -0.0012499999999999998 0.015946875000000003 7.745929405214509e-10
89 1 -0.032484374999999996 -0.0012499999999999998 0.017128124999999998 1.3972057287517425e-21
90 1 -0.032484374999999996 -0.0012499999999999998 0.018309375 0.0
91 1 -0.031303125 -0.0012499999999999998 -0.019490625 0.0
92 1 -0.031303125 -0.0012499999999999998 -0.018309375 0.0
93 1 -0.031303125 -0.0012499999999999998 -0.017128124999999998 0.0
94 1 -0.031303125 -0.0012499999999999998 -0.015946875 0.0
95 1 -0.031303125 -0.0012499999999999998 -0.014765625000000001 0.0
96 1 -0.031303125 -0.0012499999999999998 -0.013584375 0.0
97 1 -0.031303125 -0.0012499999999999998 -0.012403124999999997 0.0
98 1 -0.031303125 -0.0012499999999999998 -0.011221875 5.145224113168125e-81
99 1 -0.031303125 -0.0012499999999999998 -0.010040625000000001 5.7347484389048156e-15
100 1 -0.031303125 -0.0012499999999999998 -0.008859375 1.3241638028218444e-55
101 1 -0.031303125 -0.0012499999999999998 -0.0076781249999999975 0.0
102 1 -0.031303125 -0.0012499999999999998 -0.006496874999999999 0.0
103 1 -0.031303125 -0.0012499999999999998 -0.005315625000000001 0.0
104 1 -0.031303125 -0.0012499999999999998 -0.004134374999999999 0.0
105 1 -0.031303125 -0.0012499999999999998 -0.0029531249999999974 0.0
106 1 -0.031303125 -0.0012499999999999998 -0.0017718750000000026 0.0
107 1 -0.031303125 -0.0012499999999999998 -0.0005906250000000009 0.0
108 1 -0.031303125 -0.0012499999999999998 0.0005906250000000009 0.0
109 1 -0.031303125 -0.0012499999999999998 0.0017718750000000026 0.0
110 1 -0.031303125 -0.0012499999999999998 0.0029531250000000044 0.0
111 1 -0.031303125 -0.0012499999999999998 0.004134374999999999 0.0
112 1 -0.031303125 -0.0012499999999999998 0.005315625000000001 0.0
113 1 -0.031303125 -0.0012499999999999998 0.006496875000000003 0.0
114 1 -0.031303125 -0.0012499999999999998 0.0076781249999999975 5.011859283804883e-252
115 1 -0.031303125 -0.0012499999999999998 0.008859375 2.200571315847066e-24
116 1 -0.031303125 -0.0012499999999999998 0.010040625000000001 2.8293948078489702e-11
117 1 -0.031303125 -0.0012499999999999998 0.011221875000000003 6.583991723064621e-07
118 1 -0.031303125 -0.0012499999999999998 0.012403125000000004 3.494991633958798e-28
119 1 -0.031303125 -0.0012499999999999998 0.013584375 6.289521919441047e-49
120 1 -0.031303125 -0.0012499999999999998 0.014765625000000001 6.490409293094384e-29
121 1 -0.031303125 -0.0012499999999999998 0.015946875000000003 2.616740091310992e-109
122 1 -0.031303125 -0.0012499999999999998 0.017128124999999998 2.5357511158206002e-27
123 1 -0.031303125 -0.0012499999999999998 0.018309375 7.448655677712529e-46
124 1 -0.031303125 -0.0012499999999999998 0.019490625 0.0
125 1 -0.030121875 -0.0012499999999999998 -0.020671875 0.0
126 1 -0.030121875 -0.0012499999999999998 -0.019490625 0.0
127 1 -0.030121875 -0.0012499999999999998 -0.018309375 0.0
128 1 -0.030121875 -0.0012499999999999998 -0.017128124999999998 0.0
129 1 -0.030121875 -0.0012499999999999998 -0.015946875 0.0
130 1 -0.030121875 -0.0012499999999999998 -0.014765625000000001 0.0
131 1 -0.030121875 -0.0012499999999999998 -0.013584375 0.0
132 1 -0.030121875 -0.0012499999999999998 -0.012403124999999997 8.665320347192118e-206
133 1 -0.030121875 -0.0012499999999999998 -0.011221875 1.103456698167021e-86
134 1 -0.030121875 -0.0012499999999999998 -0.010040625000000001 5.38617795119269e-27
135 1 -0.030121875 -0.0012499999999999998 -0.008859375 5.457442339294568e-56
136 1 -0.030121875 -0.0012499999999999998 -0.0076781249999999975 4.965682522637695e-164
137 1 -0.030121875 -0.0012499999999999998 -0.006496874999999999 1.3605305643214306e-176
138 1 -0.030121875 -0.0012499999999999998 -0.005315625000000001 0.0
139 1 -0.030121875 -0.0012499999999999998 -0.004134374999999999 3.531272903355357e-289
140 1 -0.030121875 -0.0012499999999999998 -0.0029531249999999974 1.0757741860168347e-216
141 1 -0.030121875 -0.0012499999999999998 -0.0017718750000000026 0.0
142 1 -0.030121875 -0.0012499999999999998 -0.0005906250000000009 0.0
143 1 -0.030121875 -0.0012499999999999998 0.0005906250000000009 0.0
144 1 -0.030121875 -0.0012499999999999998 0.0017718750000000026 7.561156809178308e-132
145 1 -0.030121875 -0.0012499999999999998 0.0029531250000000044 0.0
146 1 -0.030121875 -0.0012499999999999998 0.004134374999999999 0.0
147 1 -0.030121875 -0.0012499999999999998 0.005315625000000001 0.0
148 1 -0.030121875 -0.0012499999999999998 0.006496875000000003 0.0
149 1 -0.030121875 -0.0012499999999999998 0.0076781249999999975 7.793488371853458e-135
150 1 -0.030121875 -0.0012499999999999998 0.008859375 4.377110578692329e-28
151 1 -0.030121875 -0.0012499999999999998 0.010040625000000001 1.3323139377011664e-87
152 1 -0.030121875 -0.0012499999999999998 0.011221875000000003 3.1018119919488734e-69
153 1 -0.030121875 -0.0012499999999999998 0.012403125000000004 0.0
154 1 -0.030121875 -0.0012499999999999998 0.013584375 0.0
155 1 -0.030121875 -0.0012499999999999998 0.014765625000000001 0.0
156 1 -0.030121875 -0.0012499999999999998 0.015946875000000003 0.0
157 1 -0.030121875 -0.0012499999999999998 0.017128124999999998 4.544300824853368e-260
158 1 -0.030121875 -0.0012499999999999998 0.018309375 3.4537861954664305e-77
159 1 -0.030121875 -0.0012499999999999998 0.019490625 1.5997612489255664e-171
160 1 -0.030121875 -0.0012499999999999998 0.020671875000000003 1.2578860325666865e-115
161 1 -0.028940625 -0.0012499999999999998 -0.021853124999999998 0.0
162 1 -0.028940625 -0.0012499999999999998 -0.020671875 0.0
163 1 -0.028940625 -0.0012499999999999998 -0.019490625 0.0
164 1 -0.028940625 -0.0012499999999999998 -0.018309375 0.0
165 1 -0.028940625 -0.0012499999999999998 -0.017128124999999998 0.0
166 1 -0.028940625 -0.0012499999999999998 -0.015946875 0.0
167 1 -0.028940625 -0.0012499999999999998 -0.014765625000000001 0.0
168 1 -0.028940625 -0.0012499999999999998 -0.013584375 2.928117921151334e-271
169 1 -0.028940625 -0.0012499999999999998 -0.012403124999999997 5.3870019248910144e-86
170 1 -0.028940625 -0.0012499999999999998 -0.011221875 6.081244235126785e-175
171 1 -0.028940625 -0.0012499999999999998 -0.010040625000000001 1.2229838581176664e-114
172 1 -0.028940625 -0.0012499999999999998 -0.008859375 7.727500607016179e-54
173 1 -0.028940625 -0.0012499999999999998 -0.0076781249999999975 8.952619834362568e-93
174 1 -0.028940625 -0.0012499999999999998 -0.006496874999999999 0.0
175 1 -0.028940625 -0.0012499999999999998 -0.005315625000000001 0.0
176 1 -0.028940625 -0.0012499999999999998 -0.004134374999999999 5.302813539394998e-93
177 1 -0.028940625 -0.0012499999999999998 -0.0029531249999999974 4.621276587046829e-49
178 1 -0.028940625 -0.0012499999999999998 -0.0017718750000000026 1.4870774791034416e-43
179 1 -0.028940625 -0.0012499999999999998 -0.0005906250000000009 1.6553667891316294e-41
180 1 -0.028940625 -0.0012499999999999998 0.0005906250000000009 2.393258428580158e-07
181 1 -0.028940625 -0.0012499999999999998 0.0017718750000000026 1.674165004357005e-06
182 1 -0.028940625 -0.0012499999999999998 0.0029531250000000044 3.5856403075662574e-07
183 1 -0.028940625 -0.0012499999999999998 0.004134374999999999 2.2195649463319356e-19
184 1 -0.028940625 -0.0012499999999999998 0.005315625000000001 0.0
185 1 -0.028940625 -0.0012499999999999998 0.006496875000000003 0.0
186 1 -0.028940625 -0.0012499999999999998 0.0076781249999999975 1.7389512085471108e-124
187 1 -0.028940625 -0.0012499999999999998 0.008859375 4.464414730127419e-27
188 1 -0.028940625 -0.0012499999999999998 0.010040625000000001 0.0
189 1 -0.028940625 -0.0012499999999999998 0.011221875000000003 0.0
190 1 -0.028940625 -0.0012499999999999998 0.012403125000000004 0.0
191 1 -0.028940625 -0.0012499999999999998 0.013584375 0.0
192 1 -0.028940625 -0.0012499999999999998 0.014765625000000001 0.0
193 1 -0.028940625 -0.0012499999999999998 0.015946875000000003 0.0
194 1 -0.028940625 -0.0012499999999999998 0.017128124999999998 0.0
195 1 -0.028940625 -0.0012499999999999998 0.018309375 8.618772055455835e-274
196 1 -0.028940625 -0.0012499999999999998 0.019490625 2.97211385899131e-27
197 1 -0.028940625 -0.0012499999999999998 0.020671875000000003 1.3317829815600604e-10
198 1 -0.028940625 -0.0012499999999999998 0.021853125000000004 0.00021240582665025732
199 1 -0.027759375 -0.0012499999999999998 -0.024215625 0.0
200 1 -0.027759375 -0.0012499999999999998 -0.023034375 0.0
201 1 -0.027759375 -0.0012499999999999998 -0.021853124999999998 0.0
202 1 -0.027759375 -0.0012499999999999998 -0.020671875 0.0
203 1 -0.027759375 -0.0012499999999999998 -0.019490625 0.0
204 1 -0.027759375 -0.0012499999999999998 -0.018309375 0.0
205 1 -0.027759375 -0.0012499999999999998 -0.017128124999999998 0.0
206 1 -0.027759375 -0.0012499999999999998 -0.015946875 9.816724891953748e-266
207 1 -0.027759375 -0.0012499999999999998 -0.014765625000000001 3.496163054810592e-166
208 1 -0.027759375 -0.0012499999999999998 -0.013584375 1.3491263286010375e-205
209 1 -0.027759375 -0.0012499999999999998 -0.012403124999999997 5.5427098585940505e-161
210 1 -0.027759375 -0.0012499999999999998 -0.011221875 2.5068966136385595e-192
211 1 -0.027759375 -0.0012499999999999998 -0.010040625000000001 9.350488863958275e-202
212 1 -0.027759375 -0.0012499999999999998 -0.008859375 0.0
213 1 -0.027759375 -0.0012499999999999998 -0.0076781249999999975 0.0
214 1 -0.027759375 -0.0012499999999999998 -0.006496874999999999 0.0
215 1 -0.027759375 -0.0012499999999999998 -0.005315625000000001 0.0
216 1 -0.027759375 -0.0012499999999999998 -0.004134374999999999 0.0
217 1 -0.027759375 -0.0012499999999999998 -0.0029531249999999974 0.0
218 1 -0.027759375 -0.0012499999999999998 -0.0017718750000000026 0.0
219 1 -0.027759375 -0.0012499999999999998 -0.0005906250000000009 1.9250890510698425e-46
220 1 -0.027759375 -0.0012499999999999998 0.0005906250000000009 4.6318554084458495e-12
221 1 -0.027759375 -0.0012499999999999998 0.0017718750000000026 3.3365190324553075e-22
222 1 -0.027759375 -0.0012499999999999998 0.0029531250000000044 3.0345028857694383e-24
223 1 -0.027759375 -0.0012499999999999998 0.004134374999999999 8.449484922740393e-53
224 1 -0.027759375 -0.0012499999999999998 0.005315625000000001 0.0
225 1 -0.027759375 -0.0012499999999999998 0.006496875000000003 0.0
226 1 -0.027759375 -0.0012499999999999998 0.0076781249999999975 2.6195299096023414e-276
227 1 -0.027759375 -0.0012499999999999998 0.008859375 4.293490584761132e-23
228 1 -0.027759375 -0.0012499999999999998 0.010040625000000001 0.0
229 1 -0.027759375 -0.0012499999999999998 0.011221875000000003 0.0
230 1 -0.027759375 -0.0012499999999999998 0.012403125000000004 0.0
231 1 -0.027759375 -0.0012499999999999998 0.013584375 0.0
232 1 -0.027759375 -0.0012499999999999998 0.014765625000000001 0.0
233 1 -0.027759375 -0.0012499999999999998 0.015946875000000003 0.0
234 1 -0.027759375 -0.0012499999999999998 0.017128124999999998 0.0
235 1 -0.027759375 -0.0012499999999999998 0.018309375 0.0
236 1 -0.027759375 -0.0012499999999999998 0.019490625 7.68257176640528e-37
237 1 -0.027759375 -0.0012499999999999998 0.020671875000000003 0.008416656072861023
238 1 -0.027759375 -0.0012499999999999998 0.021853125000000004 0.017861086147476987
239 1 -0.027759375 -0.0012499999999999998 0.023034375 1.3319361886722772e-06
240 1 -0.027759375 -0.0012499999999999998 0.024215625 1.6343023955099398e-142
241 1 -0.026578124999999998 -0.0012499999999999998 -0.026578124999999998 0.0
242 1 -0.026578124999999998 -0.0012499999999999998 -0.025396875 0.0
243 1 -0.026578124999999998 -0.0012499999999999998 -0.024215625 0.0
244 1 -0.026578124999999998 -0.0012499999999999998 -0.023034375 0.0
245 1 -0.026578124999999998 -0.0012499999999999998 -0.021853124999999998 0.0
246 1 -0.026578124999999998 -0.0012499999999999998 -0.020671875 0.0
247 1 -0.026578124999999998 -0.0012499999999999998 -0.019490625 0.0
248 1 -0.026578124999999998 -0.0012499999999999998 -0.018309375 0.0
249 1 -0.026578124999999998 -0.0012499999999999998 -0.017128124999999998 0.0
250 1 -0.026578124999999998 -0.0012499999999999998 -0.015946875 2.16455023186061e-115
251 1 -0.026578124999999998 -0.0012499999999999998 -0.014765625000000001 1.7134555084592184e-33
252 1 -0.026578124999999998 -0.0012499999999999998 -0.013584375 6.320639611473343e-45
253 1 -0.026578124999999998 -0.0012499999999999998 -0.012403124999999997 5.9700050995083654e-30
254 1 -0.026578124999999998 -0.0012499999999999998 -0.011221875 2.3893792469644867e-40
255 1 -0.026578124999999998 -0.0012499999999999998 -0.010040625000000001 5.071633890980331e-109
256 1 -0.026578124999999998 -0.0012499999999999998 -0.008859375 0.0
257 1 -0.026578124999999998 -0.0012499999999999998 -0.0076781249999999975 0.0
258 1 -0.026578124999999998 -0.0012499999999999998 -0.006496874999999999 0.0
259 1 -0.026578124999999998 -0.0012499999999999998 -0.005315625000000001 0.0
260 1 -0.026578124999999998 -0.0012499999999999998 -0.004134374999999999 0.0
261 1 -0.026578124999999998 -0.0012499999999999998 -0.0029531249999999974 0.0
262 1 -0.026578124999999998 -0.0012499999999999998 -0.0017718750000000026 0.0
263 1 -0.026578124999999998 -0.0012499999999999998 -0.0005906250000000009 5.0544358527239574e-110
264 1 -0.026578124999999998 -0.0012499999999999998 0.0005906250000000009 1.2526652766901682e-102
265 1 -0.026578124999999998 -0.0012499999999999998 0.0017718750000000026 3.170792561326565e-208
266 1 -0.026578124999999998 -0.0012499999999999998 0.0029531250000000044 9.558697663138348e-156
267 1 -0.026578124999999998 -0.0012499999999999998 0.004134374999999999 1.3961112410515217e-108
268 1 -0.026578124999999998 -0.0012499999999999998 0.005315625000000001 5.6709598343744214e-123
269 1 -0.026578124999999998 -0.0012499999999999998 0.006496875000000003 7.069961140086128e-67
270 1 -0.026578124999999998 -0.0012499999999999998 0.0076781249999999975 3.0709799920075893e-96
271 1 -0.026578124999999998 -0.0012499999999999998 0.008859375 1.4237911348440653e-26
272 1 -0.026578124999999998 -0.0012499999999999998 0.010040625000000001 8.779108367747382e-13
273 1 -0.026578124999999998 -0.0012499999999999998 0.011221875000000003 3.6671397544480794e-11
274 1 -0.026578124999999998 -0.0012499999999999998 0.012403125000000004 7.278076687710314e-31
275 1 -0.026578124999999998 -0.0012499999999999998 0.013584375 9.13419131652163e-34
276 1 -0.026578124999999998 -0.0012499999999999998 0.014765625000000001 0.0
277 1 -0.026578124999999998 -0.0012499999999999998 0.015946875000000003 0.0
278 1 -0.026578124999999998 -0.0012499999999999998 0.017128124999999998 0.0
279 1 -0.026578124999999998 -0.0012499999999999998 0.018309375 0.0
280 1 -0.026578124999999998 -0.0012499999999999998 0.019490625 1.2474918262275955e-60
281 1 -0.026578124999999998 -0.0012499999999999998 0.020671875000000003 0.0004219804186102223
282 1 -0.026578124999999998 -0.0012499999999999998 0.021853125000000004 2.3078076235305683e-06
283 1 -0.026578124999999998 -0.0012499999999999998 0.023034375 6.608394435713307e-64
284 1 -0.026578124999999998 -0.0012499999999999998 0.024215625 4.5405195430364545e-60
285 1 -0.026578124999999998 -0.0012499999999999998 0.025396875000000003 3.7427829168208305e-132
286 1 -0.026578124999999998 -0.0012499999999999998 0.026578124999999998 0.0
287 1 -0.025396875 -0.0012499999999999998 -0.026578124999999998 0.0
288 1 -0.025396875 -0.0012499999999999998 -0.025396875 0.0
289 1 -0.025396875 -0.0012499999999999998 -0.024215625 0.0
290 1 -0.025396875 -0.0012499999999999998 -0.023034375 0.0
291 1 -0.025396875 -0.0012499999999999998 -0.021853124999999998 0.0
292 1 -0.025396875 -0.0012499999999999998 -0.020671875 0.0
293 1 -0.025396875 -0.0012499999999999998 -0.019490625 0.0
294 1 -0.025396875 -0.0012499999999999998 -0.018309375 0.0
295 1 -0.025396875 -0.0012499999999999998 -0.017128124999999998 2.9943290565448924e-118
296 1 -0.025396875 -0.0012499999999999998 -0.015946875 1.2494393077325632e-21
297 1 -0.025396875 -0.0012499999999999998 -0.014765625000000001 1.9103923753104273e-07
298 1 -0.025396875 -0.0012499999999999998 -0.013584375 1.3881216914133724e-08
299 1 -0.025396875 -0.0012499999999999998 -0.012403124999999997 7.906155104046669e-27
300 1 -0.025396875 -0.0012499999999999998 -0.011221875 5.303516182911638e-116
301 1 -0.025396875 -0.0012499999999999998 -0.010040625000000001 0.0
302 1 -0.025396875 -0.0012499999999999998 -0.008859375 0.0
303 1 -0.025396875 -0.0012499999999999998 -0.0076781249999999975 0.0
304 1 -0.025396875 -0.0012499999999999998 -0.006496874999999999 0.0
305 1 -0.025396875 -0.0012499999999999998 -0.005315625000000001 3.623320437625984e-102
306 1 -0.025396875 -0.0012499999999999998 -0.004134374999999999 0.0
307 1 -0.025396875 -0.0012499999999999998 -0.0029531249999999974 0.0
308 1 -0.025396875 -0.0012499999999999998 -0.0017718750000000026 0.0
309 1 -0.025396875 -0.0012499999999999998 -0.0005906250000000009 3.925637056305845e-91
310 1 -0.025396875 -0.0012499999999999998 0.0005906250000000009 9.422873588931304e-123
311 1 -0.025396875 -0.0012499999999999998 0.0017718750000000026 4.47001847035969e-96
312 1 -0.025396875 -0.0012499999999999998 0.0029531250000000044 2.885728504407253e-38
313 1 -0.025396875 -0.0012499999999999998 0.004134374999999999 4.011326631060732e-21
314 1 -0.025396875 -0.0012499999999999998 0.005315625000000001 1.6018527883726565e-28
315 1 -0.025396875 -0.0012499999999999998 0.006496875000000003 1.316908733332995e-32
316 1 -0.025396875 -0.0012499999999999998 0.0076781249999999975 1.4184578816324456e-88
317 1 -0.025396875 -0.0012499999999999998 0.008859375 6.304500724402528e-71
318 1 -0.025396875 -0.0012499999999999998 0.010040625000000001 6.458737073165959e-68
319 1 -0.025396875 -0.0012499999999999998 0.011221875000000003 2.468260031713452e-32
320 1 -0.025396875 -0.0012499999999999998 0.012403125000000004 5.273846430493455e-59
321 1 -0.025396875 -0.0012499999999999998 0.013584375 3.5433506275670996e-44
322 1 -0.025396875 -0.0012499999999999998 0.014765625000000001 0.0
323 1 -0.025396875 -0.0012499999999999998 0.015946875000000003 0.0
324 1 -0.025396875 -0.0012499999999999998 0.017128124999999998 0.0
325 1 -0.025396875 -0.0012499999999999998 0.018309375 0.0
326 1 -0.025396875 -0.0012499999999999998 0.019490625 8.38399387878344e-179
327 1 -0.025396875 -0.0012499999999999998 0.020671875000000003 1.5674019751815002e-26
328 1 -0.025396875 -0.0012499999999999998 0.021853125000000004 2.4976160657541168e-25
329 1 -0.025396875 -0.0012499999999999998 0.023034375 1.1698745064864787e-57
330 1 -0.025396875 -0.0012499999999999998 0.024215625 1.3243110102425283e-195
331 1 -0.025396875 -0.0012499999999999998 0.025396875000000003 0.0
332 1 -0.025396875 -0.0012499999999999998 0.026578124999999998 0.0
333 1 -0.024215625 -0.0012499999999999998 -0.027759375 4.454629358226764e-171
334 1 -0.024215625 -0.0012499999999999998 -0.026578124999999998 0.0
335 1 -0.024215625 -0.0012499999999999998 -0.025396875 0.0
336 1 -0.024215625 -0.0012499999999999998 -0.024215625 0.0
337 1 -0.024215625 -0.0012499999999999998 -0.023034375 0.0
338 1 -0.024215625 -0.0012499999999999998 -0.021853124999999998 0.0
339 1 -0.024215625 -0.0012499999999999998 -0.020671875 0.0
340 1 -0.024215625 -0.0012499999999999998 -0.019490625 0.0
341 1 -0.024215625 -0.0012499999999999998 -0.018309375 6.308793509144371e-161
342 1 -0.024215625 -0.0012499999999999998 -0.017128124999999998 1.0927602831511257e-46
343 1 -0.024215625 -0.0012499999999999998 -0.015946875 1.2565173794177617e-12
344 1 -0.024215625 -0.0012499999999999998 -0.014765625000000001 3.4868199145559925e-05
345 1 -0.024215625 -0.0012499999999999998 -0.013584375 7.717239454471773e-06
346 1 -0.024215625 -0.0012499999999999998 -0.012403124999999997 7.109622099135947e-29
347 1 -0.024215625 -0.0012499999999999998 -0.011221875 1.2459526614710886e-213
348 1 -0.024215625 -0.0012499999999999998 -0.010040625000000001 0.0
349 1 -0.024215625 -0.0012499999999999998 -0.008859375 0.0
350 1 -0.024215625 -0.0012499999999999998 -0.0076781249999999975 0.0
351 1 -0.024215625 -0.0012499999999999998 -0.006496874999999999 0.0
352 1 -0.024215625 -0.0012499999999999998 -0.005315625000000001 9.051012475903253e-113
353 1 -0.024215625 -0.0012499999999999998 -0.004134374999999999 2.4492306318427594e-153
354 1 -0.024215625 -0.0012499999999999998 -0.0029531249999999974 1.189062309922796e-195
355 1 -0.024215625 -0.0012499999999999998 -0.0017718750000000026 2.659315927335814e-85
356 1 -0.024215625 -0.0012499999999999998 -0.0005906250000000009 4.2291237253109754e-24
357 1 -0.024215625 -0.0012499999999999998 0.0005906250000000009 3.663854798819745e-24
358 1 -0.024215625 -0.0012499999999999998 0.0017718750000000026 4.46179813219638e-24
359 1 -0.024215625 -0.0012499999999999998 0.0029531250000000044 3.3105895378217686e-15
360 1 -0.024215625 -0.0012499999999999998 0.004134374999999999 6.139729368822051e-06
361 1 -0.024215625 -0.0012499999999999998 0.005315625000000001 1.5596851943546113e-07
362 1 -0.024215625 -0.0012499999999999998 0.006496875000000003 2.662569251705738e-10
363 1 -0.024215625 -0.0012499999999999998 0.0076781249999999975 2.5509612987585126e-22
364 1 -0.024215625 -0.0012499999999999998 0.008859375 2.291896992073348e-29
365 1 -0.024215625 -0.0012499999999999998 0.010040625000000001 8.1289928629727395e-196
366 1 -0.024215625 -0.0012499999999999998 0.011221875000000003 0.0
367 1 -0.024215625 -0.0012499999999999998 0.012403125000000004 4.608557005025891e-242
368 1 -0.024215625 -0.0012499999999999998 0.013584375 8.914532855879215e-92
369 1 -0.024215625 -0.0012499999999999998 0.014765625000000001 0.0
370 1 -0.024215625 -0.0012499999999999998 0.015946875000000003 0.0
371 1 -0.024215625 -0.0012499999999999998 0.017128124999999998 0.0
372 1 -0.024215625 -0.0012499999999999998 0.018309375 0.0
373 1 -0.024215625 -0.0012499999999999998 0.019490625 2.4047127144226297e-249
374 1 -0.024215625 -0.0012499999999999998 0.020671875000000003 1.289294523343218e-67
375 1 -0.024215625 -0.0012499999999999998 0.021853125000000004 8.81065828777092e-25
376 1 -0.024215625 -0.0012499999999999998 0.023034375 2.3309347301745687e-29
377 1 -0.024215625 -0.0012499999999999998 0.024215625 0.0
378 1 -0.024215625 -0.0012499999999999998 0.025396875000000003 0.0
379 1 -0.024215625 -0.0012499999999999998 0.026578124999999998 3.1663450601467287e-262
380 1 -0.024215625 -0.0012499999999999998 0.027759375000000006 4.831663937894111e-178
381 1 -0.023034375 -0.0012499999999999998 -0.027759375 0.0
382 1 -0.023034375 -0.0012499999999999998 -0.026578124999999998 0.0
383 1 -0.023034375 -0.0012499999999999998 -0.025396875 0.0
384 1 -0.023034375 -0.0012499999999999998 -0.024215625 0.0
385 1 -0.023034375 -0.0012499999999999998 -0.023034375 0.0
386 1 -0.023034375 -0.0012499999999999998 -0.021853124999999998 0.0
387 1 -0.023034375 -0.0012499999999999998 -0.020671875 4.728345251117389e-288
388 1 -0.023034375 -0.0012499999999999998 -0.019490625 3.119003565716114e-64
389 1 -0.023034375 -0.0012499999999999998 -0.018309375 6.705485169152876e-28
390 1 -0.023034375 -0.0012499999999999998 -0.017128124999999998 7.024429779847879e-17