LAMMPS (17 Nov 2015)
WARNING: OMP_NUM_THREADS environment is not set. (../comm.cpp:90)
  using 1 OpenMP thread(s) per MPI task
# DEFINE NUMBER OF X,Z STEPS
# l = velocity k = indenter radius i, j = hiting location
variable imax equal 30
variable kmax equal 1
variable lmax equal 1
variable jmax equal 1
variable jstart equal 0
variable jrate equal 5
variable countmax equal "v_jrate*v_imax*(v_imax+1)/2 + v_jstart*v_imax"

# DEFINE TOTAL NUMBER OF STEPS
variable count loop ${countmax}
variable count loop 2325

print "imax = ${imax}"
imax = 30
print "jmax = ${jmax}"
jmax = 1
print "kmax = ${kmax}"
kmax = 1
print "lmax = ${lmax}"
lmax = 1

# START LOOPS
# Loop 1
label start_of_loop_1
variable l loop ${lmax}
variable l loop 1

# Loop 2
label start_of_loop_2
variable k loop ${kmax}
variable k loop 1

# Loop 3
label start_of_loop_3
variable i loop ${imax}
variable i loop 30

variable jmax equal "5*v_i"

print "imax = ${imax}"
imax = 30
print "jmax = ${jmax}"
jmax = 5

# Loop 4
label start_of_loop_4
variable j loop ${jmax}
variable j loop 5
clear
WARNING: OMP_NUM_THREADS environment is not set. (../comm.cpp:90)
  using 1 OpenMP thread(s) per MPI task

# DEFINE INITIAL CONDITIONS
# small Peridynamic cylinder hit by projectile
units		si
boundary        s s s
dimension	3
atom_style      peri
atom_modify	map array
neighbor        0.0010 bin

# small target
lattice         sc 0.001
Lattice spacing in x,y,z = 0.001 0.001 0.001
region          target cylinder y 0.0 0.0 0.037 -0.0025 0.0 units box
create_box      1 target
Created orthogonal box = (-0.037 -0.0025 -0.037) to (0.037 0 0.037)
  1 by 1 by 1 MPI processor grid
create_atoms    1 region target
Created 12855 atoms

pair_style      peri/pmb
pair_coeff      * * 1.6863e22 0.0015001 0.0005 0.25
set             group all density 2200
  12855 settings made for density
set             group all volume 1.25e-10
  12855 settings made for volume
velocity        all set 0.0 0.0 0.0 sum no units box
fix             1 all nve
fix             2 all indent 1e16 sphere v_x v_y v_z v_w units box


print "Iteration:  i = $i , j = $j, k = $k, l = $l "
Iteration:  i = 1 , j = 1, k = 1, l = 1 

print " "
 
print " "
 
print "----------------------------------------------------------------"
----------------------------------------------------------------
print "Iteration ${count} of ${countmax}"
Iteration 1 of 2325
print "----------------------------------------------------------------"
----------------------------------------------------------------
print " "
 

# Reset current timestep
reset_timestep 0

# spherical indenter to shatter target

#q is velocity for indent.txt
variable         q equal "1+(0.001*v_l)"

# indenter radius (w) for indent.txt
variable         w equal "0.0020+(0.001*v_k)"

#disk radius(v_r)
variable r equal 0.037

variable        y0 equal 0.00510
variable        vy equal -100
variable        y equal "v_y0 + v_q*step*dt*v_vy"

#Hit the whole disk
#variable        x equal "cos((PI/2)*v_i/v_imax)*((v_i-1)/v_imax*v_r)"
#variable        z equal "sin((PI/2)*v_j/v_jmax)*((v_j-1)/v_jmax*v_r)"

#Hit the disk reduced 5times compare to disk size
variable        x equal "cos((2*PI)*v_j/v_jmax)*(v_i/v_imax)*v_r*(0.3)"
variable        z equal "sin((2*PI)*v_j/v_jmax)*(v_i/v_imax)*v_r*(0.3)"

compute         1 all damage/atom
timestep        1.0e-7
thermo          100

dump            ${count} all custom 1000 Data/dump_${count}.peri id type x y z c_1
dump            1 all custom 1000 Data/dump_${count}.peri id type x y z c_1
dump            1 all custom 1000 Data/dump_1.peri id type x y z c_1

run             1000
Neighbor list info ...
  2 neighbor list requests
  update every 1 steps, delay 10 steps, check yes
  max neighbors/atom: 2000, page size: 100000
  master list distance cutoff = 0.0025001
  ghost atom cutoff = 0.0025001
  binsize = 0.00125005 -> bins = 60 3 60
Peridynamic bonds:
  total # of bonds = 185180
  bonds/atom = 14.4053
Memory usage per processor = 9.32606 Mbytes
Step Temp E_pair E_mol TotEng Press Volume 
       0            0            0            0            0            0 1.095912e-05 
     100            0            0            0            0            0 1.095912e-05 
     200            0            0            0            0            0 1.095912e-05 
     300 8.3684781e+22    29474.151            0    51751.308 1.3551671e+09 1.095912e-05 
     400 9.3834138e+24    1445297.5            0    3943192.3 1.5195227e+11 1.095912e-05 
     500 1.5026209e+26    9744000.4            0     49744249 2.4333005e+12 1.095912e-05 
     600 6.408499e+26     18276784            0 1.8887308e+08 8.0796068e+12 1.4076287e-05 
     700 1.5324924e+27    9280420.4            0 4.1723481e+08 1.1204116e+13 2.4274078e-05 
     800 2.0236077e+27    6151536.5            0 5.4484239e+08 1.0480303e+13 3.4266874e-05 
     900 2.0698628e+27    4989971.5            0 5.5599409e+08 7.4458921e+12 4.9334059e-05 
    1000 2.068999e+27    3822734.9            0 5.5459689e+08 5.8440487e+12 6.2830203e-05 
Loop time of 19.7228 on 1 procs for 1000 steps with 12855 atoms

99.1% CPU use with 1 MPI tasks x 1 OpenMP threads

MPI task timing breakdown:
Section |  min time  |  avg time  |  max time  |%varavg| %total
---------------------------------------------------------------
Pair    | 18.573     | 18.573     | 18.573     |   0.0 | 94.17
Neigh   | 0.20577    | 0.20577    | 0.20577    |   0.0 |  1.04
Comm    | 0.0049729  | 0.0049729  | 0.0049729  |   0.0 |  0.03
Output  | 0.032187   | 0.032187   | 0.032187   |   0.0 |  0.16
Modify  | 0.70721    | 0.70721    | 0.70721    |   0.0 |  3.59
Other   |            | 0.1994     |            |       |  1.01

Nlocal:    12855 ave 12855 max 12855 min
Histogram: 1 0 0 0 0 0 0 0 0 0
Nghost:    0 ave 0 max 0 min
Histogram: 1 0 0 0 0 0 0 0 0 0
Neighs:    333350 ave 333350 max 333350 min
Histogram: 1 0 0 0 0 0 0 0 0 0
FullNghs:  674306 ave 674306 max 674306 min
Histogram: 1 0 0 0 0 0 0 0 0 0

Total # of neighbors = 674306
Ave neighs/atom = 52.4548
Neighbor list builds = 16
Dangerous builds = 0

# SAVE INDENTER
print $x file Data/indenter_${count}.txt
print 0.000114336287918731 file Data/indenter_${count}.txt
print 0.000114336287918731 file Data/indenter_1.txt
0.000114336287918731
print $z append Data/indenter_${count}.txt
print 0.000351890911029207 append Data/indenter_${count}.txt
print 0.000351890911029207 append Data/indenter_1.txt
0.000351890911029207
print $w append Data/indenter_${count}.txt
print 0.003 append Data/indenter_${count}.txt
print 0.003 append Data/indenter_1.txt
0.003
print $q append Data/indenter_${count}.txt
print 1.001 append Data/indenter_${count}.txt
print 1.001 append Data/indenter_1.txt
1.001

next j
next count
jump SELF start_of_loop_4
variable j loop ${jmax}
variable j loop 5
clear
WARNING: OMP_NUM_THREADS environment is not set. (../comm.cpp:90)
  using 1 OpenMP thread(s) per MPI task

# DEFINE INITIAL CONDITIONS
# small Peridynamic cylinder hit by projectile
units		si
boundary        s s s
dimension	3
atom_style      peri
atom_modify	map array
neighbor        0.0010 bin

# small target
lattice         sc 0.001
Lattice spacing in x,y,z = 0.001 0.001 0.001
region          target cylinder y 0.0 0.0 0.037 -0.0025 0.0 units box
create_box      1 target
Created orthogonal box = (-0.037 -0.0025 -0.037) to (0.037 0 0.037)
  1 by 1 by 1 MPI processor grid
create_atoms    1 region target
Created 12855 atoms

pair_style      peri/pmb
pair_coeff      * * 1.6863e22 0.0015001 0.0005 0.25
set             group all density 2200
  12855 settings made for density
set             group all volume 1.25e-10
  12855 settings made for volume
velocity        all set 0.0 0.0 0.0 sum no units box
fix             1 all nve
fix             2 all indent 1e16 sphere v_x v_y v_z v_w units box


print "Iteration:  i = $i , j = $j, k = $k, l = $l "
Iteration:  i = 1 , j = 2, k = 1, l = 1 

print " "
 
print " "
 
print "----------------------------------------------------------------"
----------------------------------------------------------------
print "Iteration ${count} of ${countmax}"
Iteration 2 of 2325
print "----------------------------------------------------------------"
----------------------------------------------------------------
print " "
 

# Reset current timestep
reset_timestep 0

# spherical indenter to shatter target

#q is velocity for indent.txt
variable         q equal "1+(0.001*v_l)"

# indenter radius (w) for indent.txt
variable         w equal "0.0020+(0.001*v_k)"

#disk radius(v_r)
variable r equal 0.037

variable        y0 equal 0.00510
variable        vy equal -100
variable        y equal "v_y0 + v_q*step*dt*v_vy"

#Hit the whole disk
#variable        x equal "cos((PI/2)*v_i/v_imax)*((v_i-1)/v_imax*v_r)"
#variable        z equal "sin((PI/2)*v_j/v_jmax)*((v_j-1)/v_jmax*v_r)"

#Hit the disk reduced 5times compare to disk size
variable        x equal "cos((2*PI)*v_j/v_jmax)*(v_i/v_imax)*v_r*(0.3)"
variable        z equal "sin((2*PI)*v_j/v_jmax)*(v_i/v_imax)*v_r*(0.3)"

compute         1 all damage/atom
timestep        1.0e-7
thermo          100

dump            ${count} all custom 1000 Data/dump_${count}.peri id type x y z c_1
dump            2 all custom 1000 Data/dump_${count}.peri id type x y z c_1
dump            2 all custom 1000 Data/dump_2.peri id type x y z c_1

run             1000
Neighbor list info ...
  2 neighbor list requests
  update every 1 steps, delay 10 steps, check yes
  max neighbors/atom: 2000, page size: 100000
  master list distance cutoff = 0.0025001
  ghost atom cutoff = 0.0025001
  binsize = 0.00125005 -> bins = 60 3 60
Peridynamic bonds:
  total # of bonds = 185180
  bonds/atom = 14.4053
Memory usage per processor = 9.32606 Mbytes
Step Temp E_pair E_mol TotEng Press Volume 
       0            0            0            0            0            0 1.095912e-05 
     100            0            0            0            0            0 1.095912e-05 
     200            0            0            0            0            0 1.095912e-05 
     300 8.3555768e+22    29473.883            0    51716.696 1.3530779e+09 1.095912e-05 
     400 9.3798203e+24    1449695.2            0    3946633.4 1.5189408e+11 1.095912e-05 
     500 1.4922099e+26    9809380.9            0     49532486 2.4164413e+12 1.095912e-05 
     600 6.3911501e+26     17826592            0 1.8796106e+08 8.0320551e+12 1.412129e-05 
     700 1.5499898e+27     10729495            0 4.2334176e+08 1.0681503e+13 2.5752448e-05 
     800 2.0669287e+27    4832243.2            0 5.5505528e+08 9.9016686e+12 3.7045813e-05 
     900 2.1178399e+27    5551854.7            0 5.6932763e+08 7.4540694e+12 5.0422192e-05 
    1000 2.1190782e+27    3703042.6            0 5.6780844e+08 5.5038779e+12 6.8328235e-05 
Loop time of 19.6669 on 1 procs for 1000 steps with 12855 atoms

99.4% CPU use with 1 MPI tasks x 1 OpenMP threads

MPI task timing breakdown:
Section |  min time  |  avg time  |  max time  |%varavg| %total
---------------------------------------------------------------
Pair    | 18.519     | 18.519     | 18.519     |   0.0 | 94.16
Neigh   | 0.21012    | 0.21012    | 0.21012    |   0.0 |  1.07
Comm    | 0.0088625  | 0.0088625  | 0.0088625  |   0.0 |  0.05
Output  | 0.033261   | 0.033261   | 0.033261   |   0.0 |  0.17
Modify  | 0.70119    | 0.70119    | 0.70119    |   0.0 |  3.57
Other   |            | 0.1947     |            |       |  0.99

Nlocal:    12855 ave 12855 max 12855 min
Histogram: 1 0 0 0 0 0 0 0 0 0
Nghost:    0 ave 0 max 0 min
Histogram: 1 0 0 0 0 0 0 0 0 0
Neighs:    333219 ave 333219 max 333219 min
Histogram: 1 0 0 0 0 0 0 0 0 0
FullNghs:  674306 ave 674306 max 674306 min
Histogram: 1 0 0 0 0 0 0 0 0 0

Total # of neighbors = 674306
Ave neighs/atom = 52.4548
Neighbor list builds = 16
Dangerous builds = 0

# SAVE INDENTER
print $x file Data/indenter_${count}.txt
print -0.000299336287918731 file Data/indenter_${count}.txt
print -0.000299336287918731 file Data/indenter_2.txt
-0.000299336287918731
print $z append Data/indenter_${count}.txt
print 0.000217480543348215 append Data/indenter_${count}.txt
print 0.000217480543348215 append Data/indenter_2.txt
0.000217480543348215
print $w append Data/indenter_${count}.txt
print 0.003 append Data/indenter_${count}.txt
print 0.003 append Data/indenter_2.txt
0.003
print $q append Data/indenter_${count}.txt
print 1.001 append Data/indenter_${count}.txt
print 1.001 append Data/indenter_2.txt
1.001

next j
next count
jump SELF start_of_loop_4
variable j loop ${jmax}
variable j loop 5
clear
WARNING: OMP_NUM_THREADS environment is not set. (../comm.cpp:90)
  using 1 OpenMP thread(s) per MPI task

# DEFINE INITIAL CONDITIONS
# small Peridynamic cylinder hit by projectile
units		si
boundary        s s s
dimension	3
atom_style      peri
atom_modify	map array
neighbor        0.0010 bin

# small target
lattice         sc 0.001
Lattice spacing in x,y,z = 0.001 0.001 0.001
region          target cylinder y 0.0 0.0 0.037 -0.0025 0.0 units box
create_box      1 target
Created orthogonal box = (-0.037 -0.0025 -0.037) to (0.037 0 0.037)
  1 by 1 by 1 MPI processor grid
create_atoms    1 region target
Created 12855 atoms

pair_style      peri/pmb
pair_coeff      * * 1.6863e22 0.0015001 0.0005 0.25
set             group all density 2200
  12855 settings made for density
set             group all volume 1.25e-10
  12855 settings made for volume
velocity        all set 0.0 0.0 0.0 sum no units box
fix             1 all nve
fix             2 all indent 1e16 sphere v_x v_y v_z v_w units box


print "Iteration:  i = $i , j = $j, k = $k, l = $l "
Iteration:  i = 1 , j = 3, k = 1, l = 1 

print " "
 
print " "
 
print "----------------------------------------------------------------"
----------------------------------------------------------------
print "Iteration ${count} of ${countmax}"
Iteration 3 of 2325
print "----------------------------------------------------------------"
----------------------------------------------------------------
print " "
 

# Reset current timestep
reset_timestep 0

# spherical indenter to shatter target

#q is velocity for indent.txt
variable         q equal "1+(0.001*v_l)"

# indenter radius (w) for indent.txt
variable         w equal "0.0020+(0.001*v_k)"

#disk radius(v_r)
variable r equal 0.037

variable        y0 equal 0.00510
variable        vy equal -100
variable        y equal "v_y0 + v_q*step*dt*v_vy"

#Hit the whole disk
#variable        x equal "cos((PI/2)*v_i/v_imax)*((v_i-1)/v_imax*v_r)"
#variable        z equal "sin((PI/2)*v_j/v_jmax)*((v_j-1)/v_jmax*v_r)"

#Hit the disk reduced 5times compare to disk size
variable        x equal "cos((2*PI)*v_j/v_jmax)*(v_i/v_imax)*v_r*(0.3)"
variable        z equal "sin((2*PI)*v_j/v_jmax)*(v_i/v_imax)*v_r*(0.3)"

compute         1 all damage/atom
timestep        1.0e-7
thermo          100

dump            ${count} all custom 1000 Data/dump_${count}.peri id type x y z c_1
dump            3 all custom 1000 Data/dump_${count}.peri id type x y z c_1
dump            3 all custom 1000 Data/dump_3.peri id type x y z c_1

run             1000
Neighbor list info ...
  2 neighbor list requests
  update every 1 steps, delay 10 steps, check yes
  max neighbors/atom: 2000, page size: 100000
  master list distance cutoff = 0.0025001
  ghost atom cutoff = 0.0025001
  binsize = 0.00125005 -> bins = 60 3 60
Peridynamic bonds:
  total # of bonds = 185180
  bonds/atom = 14.4053
Memory usage per processor = 9.32606 Mbytes
Step Temp E_pair E_mol TotEng Press Volume 
       0            0            0            0            0            0 1.095912e-05 
     100            0            0            0            0            0 1.095912e-05 
     200            0            0            0            0            0 1.095912e-05 
     300 8.3555768e+22    29473.883            0    51716.696 1.3530779e+09 1.095912e-05 
     400 9.3798203e+24    1449695.2            0    3946633.4 1.5189408e+11 1.095912e-05 
     500 1.4922099e+26    9809380.9            0     49532486 2.4164413e+12 1.095912e-05 
     600 6.3911501e+26     17826592            0 1.8796106e+08 8.0320551e+12 1.412129e-05 
     700 1.5499898e+27     10729495            0 4.2334176e+08 1.0681503e+13 2.5752448e-05 
     800 2.0669287e+27    4832243.2            0 5.5505528e+08 9.9016686e+12 3.7045813e-05 
     900 2.1178399e+27    5551854.7            0 5.6932763e+08 7.4540694e+12 5.0422192e-05 
    1000 2.1190782e+27    3703042.6            0 5.6780844e+08 5.5038779e+12 6.8328235e-05 
Loop time of 20.0992 on 1 procs for 1000 steps with 12855 atoms

97.9% CPU use with 1 MPI tasks x 1 OpenMP threads

MPI task timing breakdown:
Section |  min time  |  avg time  |  max time  |%varavg| %total
---------------------------------------------------------------
Pair    | 18.882     | 18.882     | 18.882     |   0.0 | 93.94
Neigh   | 0.22238    | 0.22238    | 0.22238    |   0.0 |  1.11
Comm    | 0.0089068  | 0.0089068  | 0.0089068  |   0.0 |  0.04
Output  | 0.034813   | 0.034813   | 0.034813   |   0.0 |  0.17
Modify  | 0.73962    | 0.73962    | 0.73962    |   0.0 |  3.68
Other   |            | 0.2117     |            |       |  1.05

Nlocal:    12855 ave 12855 max 12855 min
Histogram: 1 0 0 0 0 0 0 0 0 0
Nghost:    0 ave 0 max 0 min
Histogram: 1 0 0 0 0 0 0 0 0 0
Neighs:    333219 ave 333219 max 333219 min
Histogram: 1 0 0 0 0 0 0 0 0 0
FullNghs:  674306 ave 674306 max 674306 min
Histogram: 1 0 0 0 0 0 0 0 0 0

Total # of neighbors = 674306
Ave neighs/atom = 52.4548
Neighbor list builds = 16
Dangerous builds = 0

# SAVE INDENTER
print $x file Data/indenter_${count}.txt
print -0.000299336287918731 file Data/indenter_${count}.txt
print -0.000299336287918731 file Data/indenter_3.txt
-0.000299336287918731
print $z append Data/indenter_${count}.txt
print -0.000217480543348215 append Data/indenter_${count}.txt
print -0.000217480543348215 append Data/indenter_3.txt
-0.000217480543348215
print $w append Data/indenter_${count}.txt
print 0.003 append Data/indenter_${count}.txt
print 0.003 append Data/indenter_3.txt
0.003
print $q append Data/indenter_${count}.txt
print 1.001 append Data/indenter_${count}.txt
print 1.001 append Data/indenter_3.txt
1.001

next j
next count
jump SELF start_of_loop_4
variable j loop ${jmax}
variable j loop 5
clear
WARNING: OMP_NUM_THREADS environment is not set. (../comm.cpp:90)
  using 1 OpenMP thread(s) per MPI task

# DEFINE INITIAL CONDITIONS
# small Peridynamic cylinder hit by projectile
units		si
boundary        s s s
dimension	3
atom_style      peri
atom_modify	map array
neighbor        0.0010 bin

# small target
lattice         sc 0.001
Lattice spacing in x,y,z = 0.001 0.001 0.001
region          target cylinder y 0.0 0.0 0.037 -0.0025 0.0 units box
create_box      1 target
Created orthogonal box = (-0.037 -0.0025 -0.037) to (0.037 0 0.037)
  1 by 1 by 1 MPI processor grid
create_atoms    1 region target
Created 12855 atoms

pair_style      peri/pmb
pair_coeff      * * 1.6863e22 0.0015001 0.0005 0.25
set             group all density 2200
  12855 settings made for density
set             group all volume 1.25e-10
  12855 settings made for volume
velocity        all set 0.0 0.0 0.0 sum no units box
fix             1 all nve
fix             2 all indent 1e16 sphere v_x v_y v_z v_w units box


print "Iteration:  i = $i , j = $j, k = $k, l = $l "
Iteration:  i = 1 , j = 4, k = 1, l = 1 

print " "
 
print " "
 
print "----------------------------------------------------------------"
----------------------------------------------------------------
print "Iteration ${count} of ${countmax}"
Iteration 4 of 2325
print "----------------------------------------------------------------"
----------------------------------------------------------------
print " "
 

# Reset current timestep
reset_timestep 0

# spherical indenter to shatter target

#q is velocity for indent.txt
variable         q equal "1+(0.001*v_l)"

# indenter radius (w) for indent.txt
variable         w equal "0.0020+(0.001*v_k)"

#disk radius(v_r)
variable r equal 0.037

variable        y0 equal 0.00510
variable        vy equal -100
variable        y equal "v_y0 + v_q*step*dt*v_vy"

#Hit the whole disk
#variable        x equal "cos((PI/2)*v_i/v_imax)*((v_i-1)/v_imax*v_r)"
#variable        z equal "sin((PI/2)*v_j/v_jmax)*((v_j-1)/v_jmax*v_r)"

#Hit the disk reduced 5times compare to disk size
variable        x equal "cos((2*PI)*v_j/v_jmax)*(v_i/v_imax)*v_r*(0.3)"
variable        z equal "sin((2*PI)*v_j/v_jmax)*(v_i/v_imax)*v_r*(0.3)"

compute         1 all damage/atom
timestep        1.0e-7
thermo          100

dump            ${count} all custom 1000 Data/dump_${count}.peri id type x y z c_1
dump            4 all custom 1000 Data/dump_${count}.peri id type x y z c_1
dump            4 all custom 1000 Data/dump_4.peri id type x y z c_1

run             1000
Neighbor list info ...
  2 neighbor list requests
  update every 1 steps, delay 10 steps, check yes
  max neighbors/atom: 2000, page size: 100000
  master list distance cutoff = 0.0025001
  ghost atom cutoff = 0.0025001
  binsize = 0.00125005 -> bins = 60 3 60
Peridynamic bonds:
  total # of bonds = 185180
  bonds/atom = 14.4053
Memory usage per processor = 9.32606 Mbytes
Step Temp E_pair E_mol TotEng Press Volume 
       0            0            0            0            0            0 1.095912e-05 
     100            0            0            0            0            0 1.095912e-05 
     200            0            0            0            0            0 1.095912e-05 
     300 8.3684781e+22    29474.151            0    51751.308 1.3551671e+09 1.095912e-05 
     400 9.3834138e+24    1445297.5            0    3943192.3 1.5195227e+11 1.095912e-05 
     500 1.5026209e+26    9744000.4            0     49744249 2.4333005e+12 1.095912e-05 
     600 6.408499e+26     18276784            0 1.8887308e+08 8.0796068e+12 1.4076287e-05 
     700 1.5324924e+27    9280420.4            0 4.1723481e+08 1.1204116e+13 2.4274078e-05 
     800 2.0236077e+27    6151536.5            0 5.4484239e+08 1.0480303e+13 3.4266874e-05 
     900 2.0698628e+27    4989971.5            0 5.5599409e+08 7.4458921e+12 4.9334059e-05 
    1000 2.068999e+27    3822734.9            0 5.5459689e+08 5.8440487e+12 6.2830203e-05 
Loop time of 19.8043 on 1 procs for 1000 steps with 12855 atoms

98.8% CPU use with 1 MPI tasks x 1 OpenMP threads

MPI task timing breakdown:
Section |  min time  |  avg time  |  max time  |%varavg| %total
---------------------------------------------------------------
Pair    | 18.653     | 18.653     | 18.653     |   0.0 | 94.19
Neigh   | 0.21124    | 0.21124    | 0.21124    |   0.0 |  1.07
Comm    | 0.0051103  | 0.0051103  | 0.0051103  |   0.0 |  0.03
Output  | 0.033219   | 0.033219   | 0.033219   |   0.0 |  0.17
Modify  | 0.70435    | 0.70435    | 0.70435    |   0.0 |  3.56
Other   |            | 0.1972     |            |       |  1.00

Nlocal:    12855 ave 12855 max 12855 min
Histogram: 1 0 0 0 0 0 0 0 0 0
Nghost:    0 ave 0 max 0 min
Histogram: 1 0 0 0 0 0 0 0 0 0
Neighs:    333350 ave 333350 max 333350 min
Histogram: 1 0 0 0 0 0 0 0 0 0
FullNghs:  674306 ave 674306 max 674306 min
Histogram: 1 0 0 0 0 0 0 0 0 0

Total # of neighbors = 674306
Ave neighs/atom = 52.4548
Neighbor list builds = 16
Dangerous builds = 0

# SAVE INDENTER
print $x file Data/indenter_${count}.txt
print 0.00011433628791873 file Data/indenter_${count}.txt
print 0.00011433628791873 file Data/indenter_4.txt
0.00011433628791873
print $z append Data/indenter_${count}.txt
print -0.000351890911029207 append Data/indenter_${count}.txt
print -0.000351890911029207 append Data/indenter_4.txt
-0.000351890911029207
print $w append Data/indenter_${count}.txt
print 0.003 append Data/indenter_${count}.txt
print 0.003 append Data/indenter_4.txt
0.003
print $q append Data/indenter_${count}.txt
print 1.001 append Data/indenter_${count}.txt
print 1.001 append Data/indenter_4.txt
1.001

next j
next count
jump SELF start_of_loop_4
variable j loop ${jmax}
variable j loop 5
clear
WARNING: OMP_NUM_THREADS environment is not set. (../comm.cpp:90)
  using 1 OpenMP thread(s) per MPI task

# DEFINE INITIAL CONDITIONS
# small Peridynamic cylinder hit by projectile
units		si
boundary        s s s
dimension	3
atom_style      peri
atom_modify	map array
neighbor        0.0010 bin

# small target
lattice         sc 0.001
Lattice spacing in x,y,z = 0.001 0.001 0.001
region          target cylinder y 0.0 0.0 0.037 -0.0025 0.0 units box
create_box      1 target
Created orthogonal box = (-0.037 -0.0025 -0.037) to (0.037 0 0.037)
  1 by 1 by 1 MPI processor grid
create_atoms    1 region target
Created 12855 atoms

pair_style      peri/pmb
pair_coeff      * * 1.6863e22 0.0015001 0.0005 0.25
set             group all density 2200
  12855 settings made for density
set             group all volume 1.25e-10
  12855 settings made for volume
velocity        all set 0.0 0.0 0.0 sum no units box
fix             1 all nve
fix             2 all indent 1e16 sphere v_x v_y v_z v_w units box


print "Iteration:  i = $i , j = $j, k = $k, l = $l "
Iteration:  i = 1 , j = 5, k = 1, l = 1 

print " "
 
print " "
 
print "----------------------------------------------------------------"
----------------------------------------------------------------
print "Iteration ${count} of ${countmax}"
Iteration 5 of 2325
print "----------------------------------------------------------------"
----------------------------------------------------------------
print " "
 

# Reset current timestep
reset_timestep 0

# spherical indenter to shatter target

#q is velocity for indent.txt
variable         q equal "1+(0.001*v_l)"

# indenter radius (w) for indent.txt
variable         w equal "0.0020+(0.001*v_k)"

#disk radius(v_r)
variable r equal 0.037

variable        y0 equal 0.00510
variable        vy equal -100
variable        y equal "v_y0 + v_q*step*dt*v_vy"

#Hit the whole disk
#variable        x equal "cos((PI/2)*v_i/v_imax)*((v_i-1)/v_imax*v_r)"
#variable        z equal "sin((PI/2)*v_j/v_jmax)*((v_j-1)/v_jmax*v_r)"

#Hit the disk reduced 5times compare to disk size
variable        x equal "cos((2*PI)*v_j/v_jmax)*(v_i/v_imax)*v_r*(0.3)"
variable        z equal "sin((2*PI)*v_j/v_jmax)*(v_i/v_imax)*v_r*(0.3)"

compute         1 all damage/atom
timestep        1.0e-7
thermo          100

dump            ${count} all custom 1000 Data/dump_${count}.peri id type x y z c_1
dump            5 all custom 1000 Data/dump_${count}.peri id type x y z c_1
dump            5 all custom 1000 Data/dump_5.peri id type x y z c_1

run             1000
Neighbor list info ...
  2 neighbor list requests
  update every 1 steps, delay 10 steps, check yes
  max neighbors/atom: 2000, page size: 100000
  master list distance cutoff = 0.0025001
  ghost atom cutoff = 0.0025001
  binsize = 0.00125005 -> bins = 60 3 60
Peridynamic bonds:
  total # of bonds = 185180
  bonds/atom = 14.4053
Memory usage per processor = 9.32606 Mbytes
Step Temp E_pair E_mol TotEng Press Volume 
       0            0            0            0            0            0 1.095912e-05 
     100            0            0            0            0            0 1.095912e-05 
     200            0            0            0            0            0 1.095912e-05 
     300 8.3773458e+22    29474.611            0    51775.374 1.3566031e+09 1.095912e-05 
     400 9.3057177e+24    1437529.5            0    3914741.3 1.5069408e+11 1.095912e-05 
     500 1.501197e+26    9808729.8            0     49771074 2.4309947e+12 1.095912e-05 
     600 6.5645917e+26     15478808            0 1.9023034e+08 8.3977701e+12 1.3872852e-05 
     700 1.602981e+27    9543833.8            0 4.3626251e+08 1.144059e+13 2.4865773e-05 
     800 2.0992042e+27    5220025.7            0 5.640349e+08 9.7845613e+12  3.80746e-05 
     900 2.1464995e+27    3853082.9            0 5.7525812e+08 7.1412672e+12 5.334301e-05 
    1000 2.1443093e+27    2897686.3            0 5.7371969e+08 5.5350098e+12 6.8752904e-05 
Loop time of 19.8755 on 1 procs for 1000 steps with 12855 atoms

98.6% CPU use with 1 MPI tasks x 1 OpenMP threads

MPI task timing breakdown:
Section |  min time  |  avg time  |  max time  |%varavg| %total
---------------------------------------------------------------
Pair    | 18.707     | 18.707     | 18.707     |   0.0 | 94.12
Neigh   | 0.21012    | 0.21012    | 0.21012    |   0.0 |  1.06
Comm    | 0.0049567  | 0.0049567  | 0.0049567  |   0.0 |  0.02
Output  | 0.034476   | 0.034476   | 0.034476   |   0.0 |  0.17
Modify  | 0.71716    | 0.71716    | 0.71716    |   0.0 |  3.61
Other   |            | 0.2013     |            |       |  1.01

Nlocal:    12855 ave 12855 max 12855 min
Histogram: 1 0 0 0 0 0 0 0 0 0
Nghost:    0 ave 0 max 0 min
Histogram: 1 0 0 0 0 0 0 0 0 0
Neighs:    333367 ave 333367 max 333367 min
Histogram: 1 0 0 0 0 0 0 0 0 0
FullNghs:  674306 ave 674306 max 674306 min
Histogram: 1 0 0 0 0 0 0 0 0 0

Total # of neighbors = 674306
Ave neighs/atom = 52.4548
Neighbor list builds = 16
Dangerous builds = 0

# SAVE INDENTER
print $x file Data/indenter_${count}.txt
print 0.00037 file Data/indenter_${count}.txt
print 0.00037 file Data/indenter_5.txt
0.00037
print $z append Data/indenter_${count}.txt
print -9.06238631369041e-20 append Data/indenter_${count}.txt
print -9.06238631369041e-20 append Data/indenter_5.txt
-9.06238631369041e-20
print $w append Data/indenter_${count}.txt
print 0.003 append Data/indenter_${count}.txt
print 0.003 append Data/indenter_5.txt
0.003
print $q append Data/indenter_${count}.txt
print 1.001 append Data/indenter_${count}.txt
print 1.001 append Data/indenter_5.txt
1.001

next j
next count
jump SELF start_of_loop_4

next i
jump SELF start_of_loop_3
variable i loop ${imax}
variable i loop 30

variable jmax equal "5*v_i"

print "imax = ${imax}"
imax = 30
print "jmax = ${jmax}"
jmax = 10

# Loop 4
label start_of_loop_4
variable j loop ${jmax}
variable j loop 10
clear
WARNING: OMP_NUM_THREADS environment is not set. (../comm.cpp:90)
  using 1 OpenMP thread(s) per MPI task

# DEFINE INITIAL CONDITIONS
# small Peridynamic cylinder hit by projectile
units		si
boundary        s s s
dimension	3
atom_style      peri
atom_modify	map array
neighbor        0.0010 bin

# small target
lattice         sc 0.001
Lattice spacing in x,y,z = 0.001 0.001 0.001
region          target cylinder y 0.0 0.0 0.037 -0.0025 0.0 units box
create_box      1 target
Created orthogonal box = (-0.037 -0.0025 -0.037) to (0.037 0 0.037)
  1 by 1 by 1 MPI processor grid
create_atoms    1 region target
Created 12855 atoms

pair_style      peri/pmb
pair_coeff      * * 1.6863e22 0.0015001 0.0005 0.25
set             group all density 2200
  12855 settings made for density
set             group all volume 1.25e-10
  12855 settings made for volume
velocity        all set 0.0 0.0 0.0 sum no units box
fix             1 all nve
fix             2 all indent 1e16 sphere v_x v_y v_z v_w units box


print "Iteration:  i = $i , j = $j, k = $k, l = $l "
Iteration:  i = 2 , j = 1, k = 1, l = 1 

print " "
 
print " "
 
print "----------------------------------------------------------------"
----------------------------------------------------------------
print "Iteration ${count} of ${countmax}"
Iteration 6 of 2325
print "----------------------------------------------------------------"
----------------------------------------------------------------
print " "
 

# Reset current timestep
reset_timestep 0

# spherical indenter to shatter target

#q is velocity for indent.txt
variable         q equal "1+(0.001*v_l)"

# indenter radius (w) for indent.txt
variable         w equal "0.0020+(0.001*v_k)"

#disk radius(v_r)
variable r equal 0.037

variable        y0 equal 0.00510
variable        vy equal -100
variable        y equal "v_y0 + v_q*step*dt*v_vy"

#Hit the whole disk
#variable        x equal "cos((PI/2)*v_i/v_imax)*((v_i-1)/v_imax*v_r)"
#variable        z equal "sin((PI/2)*v_j/v_jmax)*((v_j-1)/v_jmax*v_r)"

#Hit the disk reduced 5times compare to disk size
variable        x equal "cos((2*PI)*v_j/v_jmax)*(v_i/v_imax)*v_r*(0.3)"
variable        z equal "sin((2*PI)*v_j/v_jmax)*(v_i/v_imax)*v_r*(0.3)"

compute         1 all damage/atom
timestep        1.0e-7
thermo          100

dump            ${count} all custom 1000 Data/dump_${count}.peri id type x y z c_1
dump            6 all custom 1000 Data/dump_${count}.peri id type x y z c_1
dump            6 all custom 1000 Data/dump_6.peri id type x y z c_1

run             1000
Neighbor list info ...
  2 neighbor list requests
  update every 1 steps, delay 10 steps, check yes
  max neighbors/atom: 2000, page size: 100000
  master list distance cutoff = 0.0025001
  ghost atom cutoff = 0.0025001
  binsize = 0.00125005 -> bins = 60 3 60
Peridynamic bonds:
  total # of bonds = 185180
  bonds/atom = 14.4053
Memory usage per processor = 9.32606 Mbytes
Step Temp E_pair E_mol TotEng Press Volume 
       0            0            0            0            0            0 1.095912e-05 
     100            0            0            0            0            0 1.095912e-05 
     200            0            0            0            0            0 1.095912e-05 
     300 8.2689347e+22    29556.477            0    51568.647 1.3390474e+09 1.095912e-05 
     400 9.4763244e+24    1528785.8            0    4051413.7 1.5345684e+11 1.095912e-05 
     500 1.4793746e+26    8980130.4            0     48361555 2.3956561e+12 1.095912e-05 
     600 6.1423777e+26     14888754            0 1.7840082e+08 7.7258678e+12 1.4109489e-05 
     700 1.5234206e+27    7859886.9            0 4.1339933e+08 1.225865e+13  2.20546e-05 
     800 2.0525461e+27    4539472.6            0 5.5093381e+08 9.7240588e+12 3.7459964e-05 
     900 2.111925e+27    3955923.8            0 5.6615713e+08 7.3512351e+12 5.0984739e-05 
    1000 2.1062708e+27    4037454.1            0 5.6473348e+08 5.8119331e+12 6.4315494e-05 
Loop time of 20.2612 on 1 procs for 1000 steps with 12855 atoms

96.9% CPU use with 1 MPI tasks x 1 OpenMP threads

MPI task timing breakdown:
Section |  min time  |  avg time  |  max time  |%varavg| %total
---------------------------------------------------------------
Pair    | 19.074     | 19.074     | 19.074     |   0.0 | 94.14
Neigh   | 0.19613    | 0.19613    | 0.19613    |   0.0 |  0.97
Comm    | 0.0050552  | 0.0050552  | 0.0050552  |   0.0 |  0.02
Output  | 0.036542   | 0.036542   | 0.036542   |   0.0 |  0.18
Modify  | 0.7379     | 0.7379     | 0.7379     |   0.0 |  3.64
Other   |            | 0.212      |            |       |  1.05

Nlocal:    12855 ave 12855 max 12855 min
Histogram: 1 0 0 0 0 0 0 0 0 0
Nghost:    0 ave 0 max 0 min
Histogram: 1 0 0 0 0 0 0 0 0 0
Neighs:    333544 ave 333544 max 333544 min
Histogram: 1 0 0 0 0 0 0 0 0 0
FullNghs:  674306 ave 674306 max 674306 min
Histogram: 1 0 0 0 0 0 0 0 0 0

Total # of neighbors = 674306
Ave neighs/atom = 52.4548
Neighbor list builds = 15
Dangerous builds = 0

# SAVE INDENTER
print $x file Data/indenter_${count}.txt
print 0.000598672575837461 file Data/indenter_${count}.txt
print 0.000598672575837461 file Data/indenter_6.txt
0.000598672575837461
print $z append Data/indenter_${count}.txt
print 0.00043496108669643 append Data/indenter_${count}.txt
print 0.00043496108669643 append Data/indenter_6.txt
0.00043496108669643
print $w append Data/indenter_${count}.txt
print 0.003 append Data/indenter_${count}.txt
print 0.003 append Data/indenter_6.txt
0.003
print $q append Data/indenter_${count}.txt
print 1.001 append Data/indenter_${count}.txt
print 1.001 append Data/indenter_6.txt
1.001

next j
next count
jump SELF start_of_loop_4
variable j loop ${jmax}
variable j loop 10
clear
WARNING: OMP_NUM_THREADS environment is not set. (../comm.cpp:90)
  using 1 OpenMP thread(s) per MPI task

# DEFINE INITIAL CONDITIONS
# small Peridynamic cylinder hit by projectile
units		si
boundary        s s s
dimension	3
atom_style      peri
atom_modify	map array
neighbor        0.0010 bin

# small target
lattice         sc 0.001
Lattice spacing in x,y,z = 0.001 0.001 0.001
region          target cylinder y 0.0 0.0 0.037 -0.0025 0.0 units box
create_box      1 target
Created orthogonal box = (-0.037 -0.0025 -0.037) to (0.037 0 0.037)
  1 by 1 by 1 MPI processor grid
create_atoms    1 region target
Created 12855 atoms

pair_style      peri/pmb
pair_coeff      * * 1.6863e22 0.0015001 0.0005 0.25
set             group all density 2200
  12855 settings made for density
set             group all volume 1.25e-10
  12855 settings made for volume
velocity        all set 0.0 0.0 0.0 sum no units box
fix             1 all nve
fix             2 all indent 1e16 sphere v_x v_y v_z v_w units box


print "Iteration:  i = $i , j = $j, k = $k, l = $l "
Iteration:  i = 2 , j = 2, k = 1, l = 1 

print " "
 
print " "
 
print "----------------------------------------------------------------"
----------------------------------------------------------------
print "Iteration ${count} of ${countmax}"
Iteration 7 of 2325
print "----------------------------------------------------------------"
----------------------------------------------------------------
print " "
 

# Reset current timestep
reset_timestep 0

# spherical indenter to shatter target

#q is velocity for indent.txt
variable         q equal "1+(0.001*v_l)"

# indenter radius (w) for indent.txt
variable         w equal "0.0020+(0.001*v_k)"

#disk radius(v_r)
variable r equal 0.037

variable        y0 equal 0.00510
variable        vy equal -100
variable        y equal "v_y0 + v_q*step*dt*v_vy"

#Hit the whole disk
#variable        x equal "cos((PI/2)*v_i/v_imax)*((v_i-1)/v_imax*v_r)"
#variable        z equal "sin((PI/2)*v_j/v_jmax)*((v_j-1)/v_jmax*v_r)"

#Hit the disk reduced 5times compare to disk size
variable        x equal "cos((2*PI)*v_j/v_jmax)*(v_i/v_imax)*v_r*(0.3)"
variable        z equal "sin((2*PI)*v_j/v_jmax)*(v_i/v_imax)*v_r*(0.3)"

compute         1 all damage/atom
timestep        1.0e-7
thermo          100

dump            ${count} all custom 1000 Data/dump_${count}.peri id type x y z c_1
dump            7 all custom 1000 Data/dump_${count}.peri id type x y z c_1
dump            7 all custom 1000 Data/dump_7.peri id type x y z c_1

run             1000
Neighbor list info ...
  2 neighbor list requests
  update every 1 steps, delay 10 steps, check yes
  max neighbors/atom: 2000, page size: 100000
  master list distance cutoff = 0.0025001
  ghost atom cutoff = 0.0025001
  binsize = 0.00125005 -> bins = 60 3 60
Peridynamic bonds:
  total # of bonds = 185180
  bonds/atom = 14.4053
Memory usage per processor = 9.32606 Mbytes
Step Temp E_pair E_mol TotEng Press Volume 
       0            0            0            0            0            0 1.095912e-05 
     100            0            0            0            0            0 1.095912e-05 
     200            0            0            0            0            0 1.095912e-05 
     300 8.352742e+22    29476.495            0    51711.761 1.3526189e+09 1.095912e-05 
     400 9.3708136e+24    1452111.7            0    3946652.3 1.5174823e+11 1.095912e-05 
     500 1.4935186e+26    9785630.3            0     49543574 2.4185605e+12 1.095912e-05 
     600 6.3914369e+26     17729119            0 1.8787122e+08 8.0302782e+12 1.4125048e-05 
     700 1.5515853e+27    9309111.1            0 4.2234608e+08 1.0691743e+13 2.5754264e-05 
     800 2.0681909e+27    6318151.5            0 5.5687721e+08 9.8924125e+12 3.710312e-05 
     900 2.1330159e+27    4331881.6            0 5.7214755e+08 7.4708534e+12 5.0669416e-05 
    1000 2.1314982e+27      3951651            0 5.7136331e+08 5.5448689e+12 6.8220628e-05 
Loop time of 20.0427 on 1 procs for 1000 steps with 12855 atoms

97.9% CPU use with 1 MPI tasks x 1 OpenMP threads

MPI task timing breakdown:
Section |  min time  |  avg time  |  max time  |%varavg| %total
---------------------------------------------------------------
Pair    | 18.871     | 18.871     | 18.871     |   0.0 | 94.16
Neigh   | 0.20861    | 0.20861    | 0.20861    |   0.0 |  1.04
Comm    | 0.0085983  | 0.0085983  | 0.0085983  |   0.0 |  0.04
Output  | 0.034341   | 0.034341   | 0.034341   |   0.0 |  0.17
Modify  | 0.71249    | 0.71249    | 0.71249    |   0.0 |  3.55
Other   |            | 0.2071     |            |       |  1.03

Nlocal:    12855 ave 12855 max 12855 min
Histogram: 1 0 0 0 0 0 0 0 0 0
Nghost:    0 ave 0 max 0 min
Histogram: 1 0 0 0 0 0 0 0 0 0
Neighs:    333253 ave 333253 max 333253 min
Histogram: 1 0 0 0 0 0 0 0 0 0
FullNghs:  674306 ave 674306 max 674306 min
Histogram: 1 0 0 0 0 0 0 0 0 0

Total # of neighbors = 674306
Ave neighs/atom = 52.4548
Neighbor list builds = 16
Dangerous builds = 0

# SAVE INDENTER
print $x file Data/indenter_${count}.txt
print 0.000228672575837461 file Data/indenter_${count}.txt
print 0.000228672575837461 file Data/indenter_7.txt
0.000228672575837461
print $z append Data/indenter_${count}.txt
print 0.000703781822058414 append Data/indenter_${count}.txt
print 0.000703781822058414 append Data/indenter_7.txt
0.000703781822058414
print $w append Data/indenter_${count}.txt
print 0.003 append Data/indenter_${count}.txt
print 0.003 append Data/indenter_7.txt
0.003
print $q append Data/indenter_${count}.txt
print 1.001 append Data/indenter_${count}.txt
print 1.001 append Data/indenter_7.txt
1.001

next j
next count
jump SELF start_of_loop_4
variable j loop ${jmax}
variable j loop 10
clear
WARNING: OMP_NUM_THREADS environment is not set. (../comm.cpp:90)
  using 1 OpenMP thread(s) per MPI task

# DEFINE INITIAL CONDITIONS
# small Peridynamic cylinder hit by projectile
units		si
boundary        s s s
dimension	3
atom_style      peri
atom_modify	map array
neighbor        0.0010 bin

# small target
lattice         sc 0.001
Lattice spacing in x,y,z = 0.001 0.001 0.001
region          target cylinder y 0.0 0.0 0.037 -0.0025 0.0 units box
create_box      1 target
Created orthogonal box = (-0.037 -0.0025 -0.037) to (0.037 0 0.037)
  1 by 1 by 1 MPI processor grid
create_atoms    1 region target
Created 12855 atoms

pair_style      peri/pmb
pair_coeff      * * 1.6863e22 0.0015001 0.0005 0.25
set             group all density 2200
  12855 settings made for density
set             group all volume 1.25e-10
  12855 settings made for volume
velocity        all set 0.0 0.0 0.0 sum no units box
fix             1 all nve
fix             2 all indent 1e16 sphere v_x v_y v_z v_w units box


print "Iteration:  i = $i , j = $j, k = $k, l = $l "
Iteration:  i = 2 , j = 3, k = 1, l = 1 

print " "
 
print " "
 
print "----------------------------------------------------------------"
----------------------------------------------------------------
print "Iteration ${count} of ${countmax}"
Iteration 8 of 2325
print "----------------------------------------------------------------"
----------------------------------------------------------------
print " "
 

# Reset current timestep
reset_timestep 0

# spherical indenter to shatter target

#q is velocity for indent.txt
variable         q equal "1+(0.001*v_l)"

# indenter radius (w) for indent.txt
variable         w equal "0.0020+(0.001*v_k)"

#disk radius(v_r)
variable r equal 0.037

variable        y0 equal 0.00510
variable        vy equal -100
variable        y equal "v_y0 + v_q*step*dt*v_vy"

#Hit the whole disk
#variable        x equal "cos((PI/2)*v_i/v_imax)*((v_i-1)/v_imax*v_r)"
#variable        z equal "sin((PI/2)*v_j/v_jmax)*((v_j-1)/v_jmax*v_r)"

#Hit the disk reduced 5times compare to disk size
variable        x equal "cos((2*PI)*v_j/v_jmax)*(v_i/v_imax)*v_r*(0.3)"
variable        z equal "sin((2*PI)*v_j/v_jmax)*(v_i/v_imax)*v_r*(0.3)"

compute         1 all damage/atom
timestep        1.0e-7
thermo          100

dump            ${count} all custom 1000 Data/dump_${count}.peri id type x y z c_1
dump            8 all custom 1000 Data/dump_${count}.peri id type x y z c_1
dump            8 all custom 1000 Data/dump_8.peri id type x y z c_1

run             1000
Neighbor list info ...
  2 neighbor list requests
  update every 1 steps, delay 10 steps, check yes
  max neighbors/atom: 2000, page size: 100000
  master list distance cutoff = 0.0025001
  ghost atom cutoff = 0.0025001
  binsize = 0.00125005 -> bins = 60 3 60
Peridynamic bonds:
  total # of bonds = 185180
  bonds/atom = 14.4053
Memory usage per processor = 9.32606 Mbytes
Step Temp E_pair E_mol TotEng Press Volume 
       0            0            0            0            0            0 1.095912e-05 
     100            0            0            0            0            0 1.095912e-05 
     200            0            0            0            0            0 1.095912e-05 
     300 8.352742e+22    29476.495            0    51711.761 1.3526189e+09 1.095912e-05 
     400 9.3708136e+24    1452111.7            0    3946652.3 1.5174823e+11 1.095912e-05 
     500 1.4935186e+26    9785630.3            0     49543574 2.4185605e+12 1.095912e-05 
     600 6.3914369e+26     17729119            0 1.8787122e+08 8.0302782e+12 1.4125048e-05 
     700 1.5515853e+27    9309111.1            0 4.2234608e+08 1.0691743e+13 2.5754264e-05 
     800 2.0681909e+27    6318151.5            0 5.5687721e+08 9.8924125e+12 3.710312e-05 
     900 2.1330159e+27    4331881.6            0 5.7214755e+08 7.4708534e+12 5.0669416e-05 
    1000 2.1314982e+27      3951651            0 5.7136331e+08 5.5448689e+12 6.8220628e-05 
Loop time of 19.9753 on 1 procs for 1000 steps with 12855 atoms

98.0% CPU use with 1 MPI tasks x 1 OpenMP threads

MPI task timing breakdown:
Section |  min time  |  avg time  |  max time  |%varavg| %total
---------------------------------------------------------------
Pair    | 18.813     | 18.813     | 18.813     |   0.0 | 94.18
Neigh   | 0.21054    | 0.21054    | 0.21054    |   0.0 |  1.05
Comm    | 0.0087361  | 0.0087361  | 0.0087361  |   0.0 |  0.04
Output  | 0.036686   | 0.036686   | 0.036686   |   0.0 |  0.18
Modify  | 0.70752    | 0.70752    | 0.70752    |   0.0 |  3.54
Other   |            | 0.1983     |            |       |  0.99

Nlocal:    12855 ave 12855 max 12855 min
Histogram: 1 0 0 0 0 0 0 0 0 0
Nghost:    0 ave 0 max 0 min
Histogram: 1 0 0 0 0 0 0 0 0 0
Neighs:    333253 ave 333253 max 333253 min
Histogram: 1 0 0 0 0 0 0 0 0 0
FullNghs:  674306 ave 674306 max 674306 min
Histogram: 1 0 0 0 0 0 0 0 0 0

Total # of neighbors = 674306
Ave neighs/atom = 52.4548
Neighbor list builds = 16
Dangerous builds = 0

# SAVE INDENTER
print $x file Data/indenter_${count}.txt
print -0.000228672575837461 file Data/indenter_${count}.txt
print -0.000228672575837461 file Data/indenter_8.txt
-0.000228672575837461
print $z append Data/indenter_${count}.txt
print 0.000703781822058414 append Data/indenter_${count}.txt
print 0.000703781822058414 append Data/indenter_8.txt
0.000703781822058414
print $w append Data/indenter_${count}.txt
print 0.003 append Data/indenter_${count}.txt
print 0.003 append Data/indenter_8.txt
0.003
print $q append Data/indenter_${count}.txt
print 1.001 append Data/indenter_${count}.txt
print 1.001 append Data/indenter_8.txt
1.001

next j
next count
jump SELF start_of_loop_4
variable j loop ${jmax}
variable j loop 10
clear
WARNING: OMP_NUM_THREADS environment is not set. (../comm.cpp:90)
  using 1 OpenMP thread(s) per MPI task

# DEFINE INITIAL CONDITIONS
# small Peridynamic cylinder hit by projectile
units		si
boundary        s s s
dimension	3
atom_style      peri
atom_modify	map array
neighbor        0.0010 bin

# small target
lattice         sc 0.001
Lattice spacing in x,y,z = 0.001 0.001 0.001
region          target cylinder y 0.0 0.0 0.037 -0.0025 0.0 units box
create_box      1 target
Created orthogonal box = (-0.037 -0.0025 -0.037) to (0.037 0 0.037)
  1 by 1 by 1 MPI processor grid
create_atoms    1 region target
Created 12855 atoms

pair_style      peri/pmb
pair_coeff      * * 1.6863e22 0.0015001 0.0005 0.25
set             group all density 2200
  12855 settings made for density
set             group all volume 1.25e-10
  12855 settings made for volume
velocity        all set 0.0 0.0 0.0 sum no units box
fix             1 all nve
fix             2 all indent 1e16 sphere v_x v_y v_z v_w units box


print "Iteration:  i = $i , j = $j, k = $k, l = $l "
Iteration:  i = 2 , j = 4, k = 1, l = 1 

print " "
 
print " "
 
print "----------------------------------------------------------------"
----------------------------------------------------------------
print "Iteration ${count} of ${countmax}"
Iteration 9 of 2325
print "----------------------------------------------------------------"
----------------------------------------------------------------
print " "
 

# Reset current timestep
reset_timestep 0

# spherical indenter to shatter target

#q is velocity for indent.txt
variable         q equal "1+(0.001*v_l)"

# indenter radius (w) for indent.txt
variable         w equal "0.0020+(0.001*v_k)"

#disk radius(v_r)
variable r equal 0.037

variable        y0 equal 0.00510
variable        vy equal -100
variable        y equal "v_y0 + v_q*step*dt*v_vy"

#Hit the whole disk
#variable        x equal "cos((PI/2)*v_i/v_imax)*((v_i-1)/v_imax*v_r)"
#variable        z equal "sin((PI/2)*v_j/v_jmax)*((v_j-1)/v_jmax*v_r)"

#Hit the disk reduced 5times compare to disk size
variable        x equal "cos((2*PI)*v_j/v_jmax)*(v_i/v_imax)*v_r*(0.3)"
variable        z equal "sin((2*PI)*v_j/v_jmax)*(v_i/v_imax)*v_r*(0.3)"

compute         1 all damage/atom
timestep        1.0e-7
thermo          100

dump            ${count} all custom 1000 Data/dump_${count}.peri id type x y z c_1
dump            9 all custom 1000 Data/dump_${count}.peri id type x y z c_1
dump            9 all custom 1000 Data/dump_9.peri id type x y z c_1

run             1000
Neighbor list info ...
  2 neighbor list requests
  update every 1 steps, delay 10 steps, check yes
  max neighbors/atom: 2000, page size: 100000
  master list distance cutoff = 0.0025001
  ghost atom cutoff = 0.0025001
  binsize = 0.00125005 -> bins = 60 3 60
Peridynamic bonds:
  total # of bonds = 185180
  bonds/atom = 14.4053
Memory usage per processor = 9.32606 Mbytes
Step Temp E_pair E_mol TotEng Press Volume 
       0            0            0            0            0            0 1.095912e-05 
     100            0            0            0            0            0 1.095912e-05 
     200            0            0            0            0            0 1.095912e-05 
     300 8.2689347e+22    29556.477            0    51568.647 1.3390474e+09 1.095912e-05 
     400 9.4763244e+24    1528785.8            0    4051413.7 1.5345684e+11 1.095912e-05 
     500 1.4793746e+26    8980130.4            0     48361555 2.3956561e+12 1.095912e-05 
     600 6.1423777e+26     14888754            0 1.7840082e+08 7.7258678e+12 1.4109489e-05 
     700 1.5234206e+27    7859886.9            0 4.1339933e+08 1.225865e+13  2.20546e-05 
     800 2.0525461e+27    4539472.6            0 5.5093381e+08 9.7240588e+12 3.7459964e-05 
     900 2.111925e+27    3955923.8            0 5.6615713e+08 7.3512351e+12 5.0984739e-05 
    1000 2.1062708e+27    4037454.1            0 5.6473348e+08 5.8119331e+12 6.4315494e-05 
Loop time of 20.4164 on 1 procs for 1000 steps with 12855 atoms

96.4% CPU use with 1 MPI tasks x 1 OpenMP threads

MPI task timing breakdown:
Section |  min time  |  avg time  |  max time  |%varavg| %total
---------------------------------------------------------------
Pair    | 19.219     | 19.219     | 19.219     |   0.0 | 94.14
Neigh   | 0.2029     | 0.2029     | 0.2029     |   0.0 |  0.99
Comm    | 0.0056169  | 0.0056169  | 0.0056169  |   0.0 |  0.03
Output  | 0.037362   | 0.037362   | 0.037362   |   0.0 |  0.18
Modify  | 0.7378     | 0.7378     | 0.7378     |   0.0 |  3.61
Other   |            | 0.2136     |            |       |  1.05

Nlocal:    12855 ave 12855 max 12855 min
Histogram: 1 0 0 0 0 0 0 0 0 0
Nghost:    0 ave 0 max 0 min
Histogram: 1 0 0 0 0 0 0 0 0 0
Neighs:    333544 ave 333544 max 333544 min
Histogram: 1 0 0 0 0 0 0 0 0 0
FullNghs:  674306 ave 674306 max 674306 min
Histogram: 1 0 0 0 0 0 0 0 0 0

Total # of neighbors = 674306
Ave neighs/atom = 52.4548
Neighbor list builds = 15
Dangerous builds = 0

# SAVE INDENTER
print $x file Data/indenter_${count}.txt
print -0.000598672575837461 file Data/indenter_${count}.txt
print -0.000598672575837461 file Data/indenter_9.txt
-0.000598672575837461
print $z append Data/indenter_${count}.txt
print 0.00043496108669643 append Data/indenter_${count}.txt
print 0.00043496108669643 append Data/indenter_9.txt
0.00043496108669643
print $w append Data/indenter_${count}.txt
print 0.003 append Data/indenter_${count}.txt
print 0.003 append Data/indenter_9.txt
0.003
print $q append Data/indenter_${count}.txt
print 1.001 append Data/indenter_${count}.txt
print 1.001 append Data/indenter_9.txt
1.001

next j
next count
jump SELF start_of_loop_4
variable j loop ${jmax}
variable j loop 10
clear
WARNING: OMP_NUM_THREADS environment is not set. (../comm.cpp:90)
  using 1 OpenMP thread(s) per MPI task

# DEFINE INITIAL CONDITIONS
# small Peridynamic cylinder hit by projectile
units		si
boundary        s s s
dimension	3
atom_style      peri
atom_modify	map array
neighbor        0.0010 bin

# small target
lattice         sc 0.001
Lattice spacing in x,y,z = 0.001 0.001 0.001
region          target cylinder y 0.0 0.0 0.037 -0.0025 0.0 units box
create_box      1 target
Created orthogonal box = (-0.037 -0.0025 -0.037) to (0.037 0 0.037)
  1 by 1 by 1 MPI processor grid
create_atoms    1 region target
Created 12855 atoms

pair_style      peri/pmb
pair_coeff      * * 1.6863e22 0.0015001 0.0005 0.25
set             group all density 2200
  12855 settings made for density
set             group all volume 1.25e-10
  12855 settings made for volume
velocity        all set 0.0 0.0 0.0 sum no units box
fix             1 all nve
fix             2 all indent 1e16 sphere v_x v_y v_z v_w units box


print "Iteration:  i = $i , j = $j, k = $k, l = $l "
Iteration:  i = 2 , j = 5, k = 1, l = 1 

print " "
 
print " "
 
print "----------------------------------------------------------------"
----------------------------------------------------------------
print "Iteration ${count} of ${countmax}"
Iteration 10 of 2325
print "----------------------------------------------------------------"
----------------------------------------------------------------
print " "
 

# Reset current timestep
reset_timestep 0

# spherical indenter to shatter target

#q is velocity for indent.txt
variable         q equal "1+(0.001*v_l)"

# indenter radius (w) for indent.txt
variable         w equal "0.0020+(0.001*v_k)"

#disk radius(v_r)
variable r equal 0.037

variable        y0 equal 0.00510
variable        vy equal -100
variable        y equal "v_y0 + v_q*step*dt*v_vy"

#Hit the whole disk
#variable        x equal "cos((PI/2)*v_i/v_imax)*((v_i-1)/v_imax*v_r)"
#variable        z equal "sin((PI/2)*v_j/v_jmax)*((v_j-1)/v_jmax*v_r)"

#Hit the disk reduced 5times compare to disk size
variable        x equal "cos((2*PI)*v_j/v_jmax)*(v_i/v_imax)*v_r*(0.3)"
variable        z equal "sin((2*PI)*v_j/v_jmax)*(v_i/v_imax)*v_r*(0.3)"

compute         1 all damage/atom
timestep        1.0e-7
thermo          100

dump            ${count} all custom 1000 Data/dump_${count}.peri id type x y z c_1
dump            10 all custom 1000 Data/dump_${count}.peri id type x y z c_1
dump            10 all custom 1000 Data/dump_10.peri id type x y z c_1

run             1000
Neighbor list info ...
  2 neighbor list requests
  update every 1 steps, delay 10 steps, check yes
  max neighbors/atom: 2000, page size: 100000
  master list distance cutoff = 0.0025001
  ghost atom cutoff = 0.0025001
  binsize = 0.00125005 -> bins = 60 3 60
Peridynamic bonds:
  total # of bonds = 185180
  bonds/atom = 14.4053
Memory usage per processor = 9.32606 Mbytes
Step Temp E_pair E_mol TotEng Press Volume 
       0            0            0            0            0            0 1.095912e-05 
     100            0            0            0            0            0 1.095912e-05 
     200            0            0            0            0            0 1.095912e-05 
     300 8.4206623e+22    29399.336            0    51815.409 1.3636177e+09 1.095912e-05 
     400 9.4115552e+24    1400403.1            0    3905789.2 1.5240799e+11 1.095912e-05 
     500 1.536102e+26    9909184.1            0     50800712 2.4875189e+12 1.095912e-05 
     600 6.8729144e+26     15723802            0 1.9868299e+08 8.7011659e+12 1.4017982e-05 
     700 1.5872403e+27    8016988.8            0 4.3054544e+08 1.1254266e+13 2.5029232e-05 
     800 2.0645633e+27    5297273.2            0 5.5489063e+08 8.6801085e+12 4.2210944e-05 
     900 2.1052358e+27    5565195.4            0 5.6598571e+08 6.2972211e+12 5.9329928e-05 
    1000 2.109248e+27      2992024            0 5.6448061e+08 4.8994677e+12 7.6401304e-05 
Loop time of 20.011 on 1 procs for 1000 steps with 12855 atoms

97.6% CPU use with 1 MPI tasks x 1 OpenMP threads

MPI task timing breakdown:
Section |  min time  |  avg time  |  max time  |%varavg| %total
---------------------------------------------------------------
Pair    | 18.856     | 18.856     | 18.856     |   0.0 | 94.23
Neigh   | 0.20717    | 0.20717    | 0.20717    |   0.0 |  1.04
Comm    | 0.0050867  | 0.0050867  | 0.0050867  |   0.0 |  0.03
Output  | 0.039353   | 0.039353   | 0.039353   |   0.0 |  0.20
Modify  | 0.70656    | 0.70656    | 0.70656    |   0.0 |  3.53
Other   |            | 0.1965     |            |       |  0.98

Nlocal:    12855 ave 12855 max 12855 min
Histogram: 1 0 0 0 0 0 0 0 0 0
Nghost:    0 ave 0 max 0 min
Histogram: 1 0 0 0 0 0 0 0 0 0
Neighs:    333500 ave 333500 max 333500 min
Histogram: 1 0 0 0 0 0 0 0 0 0
FullNghs:  674306 ave 674306 max 674306 min
Histogram: 1 0 0 0 0 0 0 0 0 0

Total # of neighbors = 674306
Ave neighs/atom = 52.4548
Neighbor list builds = 16
Dangerous builds = 0

# SAVE INDENTER
print $x file Data/indenter_${count}.txt
print -0.00074 file Data/indenter_${count}.txt
print -0.00074 file Data/indenter_10.txt
-0.00074
print $z append Data/indenter_${count}.txt
print 9.06238631369041e-20 append Data/indenter_${count}.txt
print 9.06238631369041e-20 append Data/indenter_10.txt
9.06238631369041e-20
print $w append Data/indenter_${count}.txt
print 0.003 append Data/indenter_${count}.txt
print 0.003 append Data/indenter_10.txt
0.003
print $q append Data/indenter_${count}.txt
print 1.001 append Data/indenter_${count}.txt
print 1.001 append Data/indenter_10.txt
1.001

next j
next count
jump SELF start_of_loop_4
variable j loop ${jmax}
variable j loop 10
clear
WARNING: OMP_NUM_THREADS environment is not set. (../comm.cpp:90)
  using 1 OpenMP thread(s) per MPI task

# DEFINE INITIAL CONDITIONS
# small Peridynamic cylinder hit by projectile
units		si
boundary        s s s
dimension	3
atom_style      peri
atom_modify	map array
neighbor        0.0010 bin

# small target
lattice         sc 0.001
Lattice spacing in x,y,z = 0.001 0.001 0.001
region          target cylinder y 0.0 0.0 0.037 -0.0025 0.0 units box
create_box      1 target
Created orthogonal box = (-0.037 -0.0025 -0.037) to (0.037 0 0.037)
  1 by 1 by 1 MPI processor grid
create_atoms    1 region target
Created 12855 atoms

pair_style      peri/pmb
pair_coeff      * * 1.6863e22 0.0015001 0.0005 0.25
set             group all density 2200
  12855 settings made for density
set             group all volume 1.25e-10
  12855 settings made for volume
velocity        all set 0.0 0.0 0.0 sum no units box
fix             1 all nve
fix             2 all indent 1e16 sphere v_x v_y v_z v_w units box


print "Iteration:  i = $i , j = $j, k = $k, l = $l "
Iteration:  i = 2 , j = 6, k = 1, l = 1 

print " "
 
print " "
 
print "----------------------------------------------------------------"
----------------------------------------------------------------
print "Iteration ${count} of ${countmax}"
Iteration 11 of 2325
print "----------------------------------------------------------------"
----------------------------------------------------------------
print " "
 

# Reset current timestep
reset_timestep 0

# spherical indenter to shatter target

#q is velocity for indent.txt
variable         q equal "1+(0.001*v_l)"

# indenter radius (w) for indent.txt
variable         w equal "0.0020+(0.001*v_k)"

#disk radius(v_r)
variable r equal 0.037

variable        y0 equal 0.00510
variable        vy equal -100
variable        y equal "v_y0 + v_q*step*dt*v_vy"

#Hit the whole disk
#variable        x equal "cos((PI/2)*v_i/v_imax)*((v_i-1)/v_imax*v_r)"
#variable        z equal "sin((PI/2)*v_j/v_jmax)*((v_j-1)/v_jmax*v_r)"

#Hit the disk reduced 5times compare to disk size
variable        x equal "cos((2*PI)*v_j/v_jmax)*(v_i/v_imax)*v_r*(0.3)"
variable        z equal "sin((2*PI)*v_j/v_jmax)*(v_i/v_imax)*v_r*(0.3)"

compute         1 all damage/atom
timestep        1.0e-7
thermo          100

dump            ${count} all custom 1000 Data/dump_${count}.peri id type x y z c_1
dump            11 all custom 1000 Data/dump_${count}.peri id type x y z c_1
dump            11 all custom 1000 Data/dump_11.peri id type x y z c_1

run             1000
Neighbor list info ...
  2 neighbor list requests
  update every 1 steps, delay 10 steps, check yes
  max neighbors/atom: 2000, page size: 100000
  master list distance cutoff = 0.0025001
  ghost atom cutoff = 0.0025001
  binsize = 0.00125005 -> bins = 60 3 60
Peridynamic bonds:
  total # of bonds = 185180
  bonds/atom = 14.4053
Memory usage per processor = 9.32606 Mbytes
Step Temp E_pair E_mol TotEng Press Volume 
       0            0            0            0            0            0 1.095912e-05 
     100            0            0            0            0            0 1.095912e-05 
     200            0            0            0            0            0 1.095912e-05 
     300 8.2689347e+22    29556.477            0    51568.647 1.3390474e+09 1.095912e-05 
     400 9.4763244e+24    1528785.8            0    4051413.7 1.5345684e+11 1.095912e-05 
     500 1.4793746e+26    8980130.4            0     48361555 2.3956561e+12 1.095912e-05 
     600 6.1423777e+26     14888754            0 1.7840082e+08 7.7258678e+12 1.4109489e-05 
     700 1.5234206e+27    7859886.9            0 4.1339933e+08 1.225865e+13  2.20546e-05 
     800 2.0525461e+27    4539472.6            0 5.5093381e+08 9.7240588e+12 3.7459964e-05 
     900 2.111925e+27    3955923.8            0 5.6615713e+08 7.3512351e+12 5.0984739e-05 
    1000 2.1062708e+27    4037454.1            0 5.6473348e+08 5.8119331e+12 6.4315494e-05 
Loop time of 19.7507 on 1 procs for 1000 steps with 12855 atoms

98.9% CPU use with 1 MPI tasks x 1 OpenMP threads

MPI task timing breakdown:
Section |  min time  |  avg time  |  max time  |%varavg| %total
---------------------------------------------------------------
Pair    | 18.637     | 18.637     | 18.637     |   0.0 | 94.36
Neigh   | 0.19639    | 0.19639    | 0.19639    |   0.0 |  0.99
Comm    | 0.0045595  | 0.0045595  | 0.0045595  |   0.0 |  0.02
Output  | 0.03376    | 0.03376    | 0.03376    |   0.0 |  0.17
Modify  | 0.6879     | 0.6879     | 0.6879     |   0.0 |  3.48
Other   |            | 0.1913     |            |       |  0.97

Nlocal:    12855 ave 12855 max 12855 min
Histogram: 1 0 0 0 0 0 0 0 0 0
Nghost:    0 ave 0 max 0 min
Histogram: 1 0 0 0 0 0 0 0 0 0
Neighs:    333544 ave 333544 max 333544 min
Histogram: 1 0 0 0 0 0 0 0 0 0
FullNghs:  674306 ave 674306 max 674306 min
Histogram: 1 0 0 0 0 0 0 0 0 0

Total # of neighbors = 674306
Ave neighs/atom = 52.4548
Neighbor list builds = 15
Dangerous builds = 0

# SAVE INDENTER
print $x file Data/indenter_${count}.txt
print -0.000598672575837461 file Data/indenter_${count}.txt
print -0.000598672575837461 file Data/indenter_11.txt
-0.000598672575837461
print $z append Data/indenter_${count}.txt
print -0.00043496108669643 append Data/indenter_${count}.txt
print -0.00043496108669643 append Data/indenter_11.txt
-0.00043496108669643
print $w append Data/indenter_${count}.txt
print 0.003 append Data/indenter_${count}.txt
print 0.003 append Data/indenter_11.txt
0.003
print $q append Data/indenter_${count}.txt
print 1.001 append Data/indenter_${count}.txt
print 1.001 append Data/indenter_11.txt
1.001

next j
next count
jump SELF start_of_loop_4
variable j loop ${jmax}
variable j loop 10
clear
WARNING: OMP_NUM_THREADS environment is not set. (../comm.cpp:90)
  using 1 OpenMP thread(s) per MPI task

# DEFINE INITIAL CONDITIONS
# small Peridynamic cylinder hit by projectile
units		si
boundary        s s s
dimension	3
atom_style      peri
atom_modify	map array
neighbor        0.0010 bin

# small target
lattice         sc 0.001
Lattice spacing in x,y,z = 0.001 0.001 0.001
region          target cylinder y 0.0 0.0 0.037 -0.0025 0.0 units box
create_box      1 target
Created orthogonal box = (-0.037 -0.0025 -0.037) to (0.037 0 0.037)
  1 by 1 by 1 MPI processor grid
create_atoms    1 region target
Created 12855 atoms

pair_style      peri/pmb
pair_coeff      * * 1.6863e22 0.0015001 0.0005 0.25
set             group all density 2200
  12855 settings made for density
set             group all volume 1.25e-10
  12855 settings made for volume
velocity        all set 0.0 0.0 0.0 sum no units box
fix             1 all nve
fix             2 all indent 1e16 sphere v_x v_y v_z v_w units box


print "Iteration:  i = $i , j = $j, k = $k, l = $l "
Iteration:  i = 2 , j = 7, k = 1, l = 1 

print " "
 
print " "
 
print "----------------------------------------------------------------"
----------------------------------------------------------------
print "Iteration ${count} of ${countmax}"
Iteration 12 of 2325
print "----------------------------------------------------------------"
----------------------------------------------------------------
print " "
 

# Reset current timestep
reset_timestep 0

# spherical indenter to shatter target

#q is velocity for indent.txt
variable         q equal "1+(0.001*v_l)"

# indenter radius (w) for indent.txt
variable         w equal "0.0020+(0.001*v_k)"

#disk radius(v_r)
variable r equal 0.037

variable        y0 equal 0.00510
variable        vy equal -100
variable        y equal "v_y0 + v_q*step*dt*v_vy"

#Hit the whole disk
#variable        x equal "cos((PI/2)*v_i/v_imax)*((v_i-1)/v_imax*v_r)"
#variable        z equal "sin((PI/2)*v_j/v_jmax)*((v_j-1)/v_jmax*v_r)"

#Hit the disk reduced 5times compare to disk size
variable        x equal "cos((2*PI)*v_j/v_jmax)*(v_i/v_imax)*v_r*(0.3)"
variable        z equal "sin((2*PI)*v_j/v_jmax)*(v_i/v_imax)*v_r*(0.3)"

compute         1 all damage/atom
timestep        1.0e-7
thermo          100

dump            ${count} all custom 1000 Data/dump_${count}.peri id type x y z c_1
dump            12 all custom 1000 Data/dump_${count}.peri id type x y z c_1
dump            12 all custom 1000 Data/dump_12.peri id type x y z c_1

run             1000
Neighbor list info ...
  2 neighbor list requests
  update every 1 steps, delay 10 steps, check yes
  max neighbors/atom: 2000, page size: 100000
  master list distance cutoff = 0.0025001
  ghost atom cutoff = 0.0025001
  binsize = 0.00125005 -> bins = 60 3 60
Peridynamic bonds:
  total # of bonds = 185180
  bonds/atom = 14.4053
Memory usage per processor = 9.32606 Mbytes
Step Temp E_pair E_mol TotEng Press Volume 
       0            0            0            0            0            0 1.095912e-05 
     100            0            0            0            0            0 1.095912e-05 
     200            0            0            0            0            0 1.095912e-05 
     300 8.352742e+22    29476.495            0    51711.761 1.3526189e+09 1.095912e-05 
     400 9.3708136e+24    1452111.7            0    3946652.3 1.5174823e+11 1.095912e-05 
     500 1.4935186e+26    9785630.3            0     49543574 2.4185605e+12 1.095912e-05 
     600 6.3914369e+26     17729119            0 1.8787122e+08 8.0302782e+12 1.4125048e-05 
     700 1.5515853e+27    9309111.1            0 4.2234608e+08 1.0691743e+13 2.5754264e-05 
     800 2.0681909e+27    6318151.5            0 5.5687721e+08 9.8924125e+12 3.710312e-05 
     900 2.1330159e+27    4331881.6            0 5.7214755e+08 7.4708534e+12 5.0669416e-05 
    1000 2.1314982e+27      3951651            0 5.7136331e+08 5.5448689e+12 6.8220628e-05 
Loop time of 19.9753 on 1 procs for 1000 steps with 12855 atoms

97.9% CPU use with 1 MPI tasks x 1 OpenMP threads

MPI task timing breakdown:
Section |  min time  |  avg time  |  max time  |%varavg| %total
---------------------------------------------------------------
Pair    | 18.809     | 18.809     | 18.809     |   0.0 | 94.16
Neigh   | 0.22068    | 0.22068    | 0.22068    |   0.0 |  1.10
Comm    | 0.0087218  | 0.0087218  | 0.0087218  |   0.0 |  0.04
Output  | 0.034104   | 0.034104   | 0.034104   |   0.0 |  0.17
Modify  | 0.71202    | 0.71202    | 0.71202    |   0.0 |  3.56
Other   |            | 0.1909     |            |       |  0.96

Nlocal:    12855 ave 12855 max 12855 min
Histogram: 1 0 0 0 0 0 0 0 0 0
Nghost:    0 ave 0 max 0 min
Histogram: 1 0 0 0 0 0 0 0 0 0
Neighs:    333253 ave 333253 max 333253 min
Histogram: 1 0 0 0 0 0 0 0 0 0
FullNghs:  674306 ave 674306 max 674306 min
Histogram: 1 0 0 0 0 0 0 0 0 0

Total # of neighbors = 674306
Ave neighs/atom = 52.4548
Neighbor list builds = 16
Dangerous builds = 0

# SAVE INDENTER
print $x file Data/indenter_${count}.txt
print -0.000228672575837461 file Data/indenter_${count}.txt
print -0.000228672575837461 file Data/indenter_12.txt
-0.000228672575837461
print $z append Data/indenter_${count}.txt
print -0.000703781822058414 append Data/indenter_${count}.txt
print -0.000703781822058414 append Data/indenter_12.txt
-0.000703781822058414
print $w append Data/indenter_${count}.txt
print 0.003 append Data/indenter_${count}.txt
print 0.003 append Data/indenter_12.txt
0.003
print $q append Data/indenter_${count}.txt
print 1.001 append Data/indenter_${count}.txt
print 1.001 append Data/indenter_12.txt
1.001

next j
next count
jump SELF start_of_loop_4
variable j loop ${jmax}
variable j loop 10
clear
WARNING: OMP_NUM_THREADS environment is not set. (../comm.cpp:90)
  using 1 OpenMP thread(s) per MPI task

# DEFINE INITIAL CONDITIONS
# small Peridynamic cylinder hit by projectile
units		si
boundary        s s s
dimension	3
atom_style      peri
atom_modify	map array
neighbor        0.0010 bin

# small target
lattice         sc 0.001
Lattice spacing in x,y,z = 0.001 0.001 0.001
region          target cylinder y 0.0 0.0 0.037 -0.0025 0.0 units box
create_box      1 target
Created orthogonal box = (-0.037 -0.0025 -0.037) to (0.037 0 0.037)
  1 by 1 by 1 MPI processor grid
create_atoms    1 region target
Created 12855 atoms

pair_style      peri/pmb
pair_coeff      * * 1.6863e22 0.0015001 0.0005 0.25
set             group all density 2200
  12855 settings made for density
set             group all volume 1.25e-10
  12855 settings made for volume
velocity        all set 0.0 0.0 0.0 sum no units box
fix             1 all nve
fix             2 all indent 1e16 sphere v_x v_y v_z v_w units box


print "Iteration:  i = $i , j = $j, k = $k, l = $l "
Iteration:  i = 2 , j = 8, k = 1, l = 1 

print " "
 
print " "
 
print "----------------------------------------------------------------"
----------------------------------------------------------------
print "Iteration ${count} of ${countmax}"
Iteration 13 of 2325
print "----------------------------------------------------------------"
----------------------------------------------------------------
print " "
 

# Reset current timestep
reset_timestep 0

# spherical indenter to shatter target

#q is velocity for indent.txt
variable         q equal "1+(0.001*v_l)"

# indenter radius (w) for indent.txt
variable         w equal "0.0020+(0.001*v_k)"

#disk radius(v_r)
variable r equal 0.037

variable        y0 equal 0.00510
variable        vy equal -100
variable        y equal "v_y0 + v_q*step*dt*v_vy"

#Hit the whole disk
#variable        x equal "cos((PI/2)*v_i/v_imax)*((v_i-1)/v_imax*v_r)"
#variable        z equal "sin((PI/2)*v_j/v_jmax)*((v_j-1)/v_jmax*v_r)"

#Hit the disk reduced 5times compare to disk size
variable        x equal "cos((2*PI)*v_j/v_jmax)*(v_i/v_imax)*v_r*(0.3)"
variable        z equal "sin((2*PI)*v_j/v_jmax)*(v_i/v_imax)*v_r*(0.3)"

compute         1 all damage/atom
timestep        1.0e-7
thermo          100

dump            ${count} all custom 1000 Data/dump_${count}.peri id type x y z c_1
dump            13 all custom 1000 Data/dump_${count}.peri id type x y z c_1
dump            13 all custom 1000 Data/dump_13.peri id type x y z c_1

run             1000
Neighbor list info ...
  2 neighbor list requests
  update every 1 steps, delay 10 steps, check yes
  max neighbors/atom: 2000, page size: 100000
  master list distance cutoff = 0.0025001
  ghost atom cutoff = 0.0025001
  binsize = 0.00125005 -> bins = 60 3 60
Peridynamic bonds:
  total # of bonds = 185180
  bonds/atom = 14.4053
Memory usage per processor = 9.32606 Mbytes
Step Temp E_pair E_mol TotEng Press Volume 
       0            0            0            0            0            0 1.095912e-05 
     100            0            0            0            0            0 1.095912e-05 
     200            0            0            0            0            0 1.095912e-05 
     300 8.352742e+22    29476.495            0    51711.761 1.3526189e+09 1.095912e-05 
     400 9.3708136e+24    1452111.7            0    3946652.3 1.5174823e+11 1.095912e-05 
     500 1.4935186e+26    9785630.3            0     49543574 2.4185605e+12 1.095912e-05 
     600 6.3914369e+26     17729119            0 1.8787122e+08 8.0302782e+12 1.4125048e-05 
     700 1.5515853e+27    9309111.1            0 4.2234608e+08 1.0691743e+13 2.5754264e-05 
     800 2.0681909e+27    6318151.5            0 5.5687721e+08 9.8924125e+12 3.710312e-05 
     900 2.1330159e+27    4331881.6            0 5.7214755e+08 7.4708534e+12 5.0669416e-05 
    1000 2.1314982e+27      3951651            0 5.7136331e+08 5.5448689e+12 6.8220628e-05 
Loop time of 19.7306 on 1 procs for 1000 steps with 12855 atoms

98.8% CPU use with 1 MPI tasks x 1 OpenMP threads

MPI task timing breakdown:
Section |  min time  |  avg time  |  max time  |%varavg| %total
---------------------------------------------------------------
Pair    | 18.599     | 18.599     | 18.599     |   0.0 | 94.27
Neigh   | 0.2083     | 0.2083     | 0.2083     |   0.0 |  1.06
Comm    | 0.0083423  | 0.0083423  | 0.0083423  |   0.0 |  0.04
Output  | 0.033515   | 0.033515   | 0.033515   |   0.0 |  0.17
Modify  | 0.69197    | 0.69197    | 0.69197    |   0.0 |  3.51
Other   |            | 0.1894     |            |       |  0.96

Nlocal:    12855 ave 12855 max 12855 min
Histogram: 1 0 0 0 0 0 0 0 0 0
Nghost:    0 ave 0 max 0 min
Histogram: 1 0 0 0 0 0 0 0 0 0
Neighs:    333253 ave 333253 max 333253 min
Histogram: 1 0 0 0 0 0 0 0 0 0
FullNghs:  674306 ave 674306 max 674306 min
Histogram: 1 0 0 0 0 0 0 0 0 0

Total # of neighbors = 674306
Ave neighs/atom = 52.4548
Neighbor list builds = 16
Dangerous builds = 0

# SAVE INDENTER
print $x file Data/indenter_${count}.txt
print 0.000228672575837461 file Data/indenter_${count}.txt
print 0.000228672575837461 file Data/indenter_13.txt
0.000228672575837461
print $z append Data/indenter_${count}.txt
print -0.000703781822058414 append Data/indenter_${count}.txt
print -0.000703781822058414 append Data/indenter_13.txt
-0.000703781822058414
print $w append Data/indenter_${count}.txt
print 0.003 append Data/indenter_${count}.txt
print 0.003 append Data/indenter_13.txt
0.003
print $q append Data/indenter_${count}.txt
print 1.001 append Data/indenter_${count}.txt
print 1.001 append Data/indenter_13.txt
1.001

next j
next count
jump SELF start_of_loop_4
variable j loop ${jmax}
variable j loop 10
clear
WARNING: OMP_NUM_THREADS environment is not set. (../comm.cpp:90)
  using 1 OpenMP thread(s) per MPI task

# DEFINE INITIAL CONDITIONS
# small Peridynamic cylinder hit by projectile
units		si
boundary        s s s
dimension	3
atom_style      peri
atom_modify	map array
neighbor        0.0010 bin

# small target
lattice         sc 0.001
Lattice spacing in x,y,z = 0.001 0.001 0.001
region          target cylinder y 0.0 0.0 0.037 -0.0025 0.0 units box
create_box      1 target
Created orthogonal box = (-0.037 -0.0025 -0.037) to (0.037 0 0.037)
  1 by 1 by 1 MPI processor grid
create_atoms    1 region target
Created 12855 atoms

pair_style      peri/pmb
pair_coeff      * * 1.6863e22 0.0015001 0.0005 0.25
set             group all density 2200
  12855 settings made for density
set             group all volume 1.25e-10
  12855 settings made for volume
velocity        all set 0.0 0.0 0.0 sum no units box
fix             1 all nve
fix             2 all indent 1e16 sphere v_x v_y v_z v_w units box


print "Iteration:  i = $i , j = $j, k = $k, l = $l "
Iteration:  i = 2 , j = 9, k = 1, l = 1 

print " "
 
print " "
 
print "----------------------------------------------------------------"
----------------------------------------------------------------
print "Iteration ${count} of ${countmax}"
Iteration 14 of 2325
print "----------------------------------------------------------------"
----------------------------------------------------------------
print " "
 

# Reset current timestep
reset_timestep 0

# spherical indenter to shatter target

#q is velocity for indent.txt
variable         q equal "1+(0.001*v_l)"

# indenter radius (w) for indent.txt
variable         w equal "0.0020+(0.001*v_k)"

#disk radius(v_r)
variable r equal 0.037

variable        y0 equal 0.00510
variable        vy equal -100
variable        y equal "v_y0 + v_q*step*dt*v_vy"

#Hit the whole disk
#variable        x equal "cos((PI/2)*v_i/v_imax)*((v_i-1)/v_imax*v_r)"
#variable        z equal "sin((PI/2)*v_j/v_jmax)*((v_j-1)/v_jmax*v_r)"

#Hit the disk reduced 5times compare to disk size
variable        x equal "cos((2*PI)*v_j/v_jmax)*(v_i/v_imax)*v_r*(0.3)"
variable        z equal "sin((2*PI)*v_j/v_jmax)*(v_i/v_imax)*v_r*(0.3)"

compute         1 all damage/atom
timestep        1.0e-7
thermo          100

dump            ${count} all custom 1000 Data/dump_${count}.peri id type x y z c_1
dump            14 all custom 1000 Data/dump_${count}.peri id type x y z c_1
dump            14 all custom 1000 Data/dump_14.peri id type x y z c_1

run             1000
Neighbor list info ...
  2 neighbor list requests
  update every 1 steps, delay 10 steps, check yes
  max neighbors/atom: 2000, page size: 100000
  master list distance cutoff = 0.0025001
  ghost atom cutoff = 0.0025001
  binsize = 0.00125005 -> bins = 60 3 60
Peridynamic bonds:
  total # of bonds = 185180
  bonds/atom = 14.4053
Memory usage per processor = 9.32606 Mbytes
Step Temp E_pair E_mol TotEng Press Volume 
       0            0            0            0            0            0 1.095912e-05 
     100            0            0            0            0            0 1.095912e-05 
     200            0            0            0            0            0 1.095912e-05 
     300 8.2689347e+22    29556.477            0    51568.647 1.3390474e+09 1.095912e-05 
     400 9.4763244e+24    1528785.8            0    4051413.7 1.5345684e+11 1.095912e-05 
     500 1.4793746e+26    8980130.4            0     48361555 2.3956561e+12 1.095912e-05 
     600 6.1423777e+26     14888754            0 1.7840082e+08 7.7258678e+12 1.4109489e-05 
     700 1.5234206e+27    7859886.9            0 4.1339933e+08 1.225865e+13  2.20546e-05 
     800 2.0525461e+27    4539472.6            0 5.5093381e+08 9.7240588e+12 3.7459964e-05 
     900 2.111925e+27    3955923.8            0 5.6615713e+08 7.3512351e+12 5.0984739e-05 
    1000 2.1062708e+27    4037454.1            0 5.6473348e+08 5.8119331e+12 6.4315494e-05 
Loop time of 19.7687 on 1 procs for 1000 steps with 12855 atoms

98.8% CPU use with 1 MPI tasks x 1 OpenMP threads

MPI task timing breakdown:
Section |  min time  |  avg time  |  max time  |%varavg| %total
---------------------------------------------------------------
[...]
create_atoms    1 region target
Created 12855 atoms

pair_style      peri/pmb
pair_coeff      * * 1.6863e22 0.0015001 0.0005 0.25
set             group all density 2200
  12855 settings made for density
set             group all volume 1.25e-10
  12855 settings made for volume
velocity        all set 0.0 0.0 0.0 sum no units box
fix             1 all nve
fix             2 all indent 1e16 sphere v_x v_y v_z v_w units box


print "Iteration:  i = $i , j = $j, k = $k, l = $l "
Iteration:  i = 4 , j = 9, k = 1, l = 1 

print " "
 
print " "
 
print "----------------------------------------------------------------"
----------------------------------------------------------------
print "Iteration ${count} of ${countmax}"
Iteration 39 of 2325
print "----------------------------------------------------------------"
----------------------------------------------------------------
print " "
 

# Reset current timestep
reset_timestep 0

# spherical indenter to shatter target

#q is velocity for indent.txt
variable         q equal "1+(0.001*v_l)"

# indenter radius (w) for indent.txt
variable         w equal "0.0020+(0.001*v_k)"

#disk radius(v_r)
variable r equal 0.037

variable        y0 equal 0.00510
variable        vy equal -100
variable        y equal "v_y0 + v_q*step*dt*v_vy"

#Hit the whole disk
#variable        x equal "cos((PI/2)*v_i/v_imax)*((v_i-1)/v_imax*v_r)"
#variable        z equal "sin((PI/2)*v_j/v_jmax)*((v_j-1)/v_jmax*v_r)"

#Hit the disk reduced 5times compare to disk size
variable        x equal "cos((2*PI)*v_j/v_jmax)*(v_i/v_imax)*v_r*(0.3)"
variable        z equal "sin((2*PI)*v_j/v_jmax)*(v_i/v_imax)*v_r*(0.3)"

compute         1 all damage/atom
timestep        1.0e-7
thermo          100

dump            ${count} all custom 1000 Data/dump_${count}.peri id type x y z c_1
dump            39 all custom 1000 Data/dump_${count}.peri id type x y z c_1
dump            39 all custom 1000 Data/dump_39.peri id type x y z c_1

run             1000
Neighbor list info ...
  2 neighbor list requests
  update every 1 steps, delay 10 steps, check yes
  max neighbors/atom: 2000, page size: 100000
  master list distance cutoff = 0.0025001
  ghost atom cutoff = 0.0025001
  binsize = 0.00125005 -> bins = 60 3 60
Peridynamic bonds:
  total # of bonds = 185180
  bonds/atom = 14.4053
Memory usage per processor = 9.32606 Mbytes
Step Temp E_pair E_mol TotEng Press Volume 
       0            0            0            0            0            0 1.095912e-05 
     100            0            0            0            0            0 1.095912e-05 
     200            0            0            0            0            0 1.095912e-05 
     300 8.2658744e+22    29558.397            0    51562.419 1.3385518e+09 1.095912e-05 
     400 9.4975781e+24    1515100.2            0      4043386 1.5380102e+11 1.095912e-05 
     500 1.4978413e+26    8761455.7            0     48634472 2.4255607e+12 1.095912e-05 
     600 6.2120724e+26     15295529            0 1.8066289e+08 7.8181601e+12 1.4101132e-05 
     700 1.5091353e+27     10753069            0 4.1248973e+08 1.2340763e+13 2.1702422e-05 
     800 2.0572458e+27    4469682.6            0 5.521151e+08 1.0963901e+13 3.3299914e-05 
     900 2.115618e+27    4214619.1            0 5.6739892e+08 7.9041381e+12 4.750122e-05 
    1000 2.1171083e+27    3554737.5            0 5.6713575e+08 6.1536985e+12 6.1056074e-05 
Loop time of 20.638 on 1 procs for 1000 steps with 12855 atoms

96.2% CPU use with 1 MPI tasks x 1 OpenMP threads

MPI task timing breakdown:
Section |  min time  |  avg time  |  max time  |%varavg| %total
---------------------------------------------------------------
Pair    | 19.297     | 19.297     | 19.297     |   0.0 | 93.50
Neigh   | 0.18614    | 0.18614    | 0.18614    |   0.0 |  0.90
Comm    | 0.0073195  | 0.0073195  | 0.0073195  |   0.0 |  0.04
Output  | 0.045176   | 0.045176   | 0.045176   |   0.0 |  0.22
Modify  | 0.83753    | 0.83753    | 0.83753    |   0.0 |  4.06
Other   |            | 0.2646     |            |       |  1.28

Nlocal:    12855 ave 12855 max 12855 min
Histogram: 1 0 0 0 0 0 0 0 0 0
Nghost:    0 ave 0 max 0 min
Histogram: 1 0 0 0 0 0 0 0 0 0
Neighs:    333594 ave 333594 max 333594 min
Histogram: 1 0 0 0 0 0 0 0 0 0
FullNghs:  674306 ave 674306 max 674306 min
Histogram: 1 0 0 0 0 0 0 0 0 0

Total # of neighbors = 674306
Ave neighs/atom = 52.4548
Neighbor list builds = 14
Dangerous builds = 0

# SAVE INDENTER
print $x file Data/indenter_${count}.txt
print -0.00140756364411683 file Data/indenter_${count}.txt
print -0.00140756364411683 file Data/indenter_39.txt
-0.00140756364411683
print $z append Data/indenter_${count}.txt
print 0.000457345151674922 append Data/indenter_${count}.txt
print 0.000457345151674922 append Data/indenter_39.txt
0.000457345151674922
print $w append Data/indenter_${count}.txt
print 0.003 append Data/indenter_${count}.txt
print 0.003 append Data/indenter_39.txt
0.003
print $q append Data/indenter_${count}.txt
print 1.001 append Data/indenter_${count}.txt
print 1.001 append Data/indenter_39.txt
1.001

next j
next count
jump SELF start_of_loop_4
variable j loop ${jmax}
variable j loop 20
clear
WARNING: OMP_NUM_THREADS environment is not set. (../comm.cpp:90)
  using 1 OpenMP thread(s) per MPI task

# DEFINE INITIAL CONDITIONS
# small Peridynamic cylinder hit by projectile
units		si
boundary        s s s
dimension	3
atom_style      peri
atom_modify	map array
neighbor        0.0010 bin

# small target
lattice         sc 0.001
Lattice spacing in x,y,z = 0.001 0.001 0.001
region          target cylinder y 0.0 0.0 0.037 -0.0025 0.0 units box
create_box      1 target
Created orthogonal box = (-0.037 -0.0025 -0.037) to (0.037 0 0.037)
  1 by 1 by 1 MPI processor grid
create_atoms    1 region target
Created 12855 atoms

pair_style      peri/pmb
pair_coeff      * * 1.6863e22 0.0015001 0.0005 0.25
set             group all density 2200
  12855 settings made for density
set             group all volume 1.25e-10
  12855 settings made for volume
velocity        all set 0.0 0.0 0.0 sum no units box
fix             1 all nve
fix             2 all indent 1e16 sphere v_x v_y v_z v_w units box


print "Iteration:  i = $i , j = $j, k = $k, l = $l "
Iteration:  i = 4 , j = 10, k = 1, l = 1 

print " "
 
print " "
 
print "----------------------------------------------------------------"
----------------------------------------------------------------
print "Iteration ${count} of ${countmax}"
Iteration 40 of 2325
print "----------------------------------------------------------------"
----------------------------------------------------------------
print " "
 

# Reset current timestep
reset_timestep 0

# spherical indenter to shatter target

#q is velocity for indent.txt
variable         q equal "1+(0.001*v_l)"

# indenter radius (w) for indent.txt
variable         w equal "0.0020+(0.001*v_k)"

#disk radius(v_r)
variable r equal 0.037

variable        y0 equal 0.00510
variable        vy equal -100
variable        y equal "v_y0 + v_q*step*dt*v_vy"

#Hit the whole disk
#variable        x equal "cos((PI/2)*v_i/v_imax)*((v_i-1)/v_imax*v_r)"
#variable        z equal "sin((PI/2)*v_j/v_jmax)*((v_j-1)/v_jmax*v_r)"

#Hit the disk reduced 5times compare to disk size
variable        x equal "cos((2*PI)*v_j/v_jmax)*(v_i/v_imax)*v_r*(0.3)"
variable        z equal "sin((2*PI)*v_j/v_jmax)*(v_i/v_imax)*v_r*(0.3)"

compute         1 all damage/atom
timestep        1.0e-7
thermo          100

dump            ${count} all custom 1000 Data/dump_${count}.peri id type x y z c_1
dump            40 all custom 1000 Data/dump_${count}.peri id type x y z c_1
dump            40 all custom 1000 Data/dump_40.peri id type x y z c_1

run             1000
Neighbor list info ...
  2 neighbor list requests
  update every 1 steps, delay 10 steps, check yes
  max neighbors/atom: 2000, page size: 100000
  master list distance cutoff = 0.0025001
  ghost atom cutoff = 0.0025001
  binsize = 0.00125005 -> bins = 60 3 60
Peridynamic bonds:
  total # of bonds = 185180
  bonds/atom = 14.4053
Memory usage per processor = 9.32606 Mbytes
Step Temp E_pair E_mol TotEng Press Volume 
       0            0            0            0            0            0 1.095912e-05 
     100            0            0            0            0            0 1.095912e-05 
     200            0            0            0            0            0 1.095912e-05 
     300 8.3561831e+22    29509.923            0     51754.35 1.3531761e+09 1.095912e-05 
     400 9.2844135e+24    1434834.2            0    3906374.8 1.5034909e+11 1.095912e-05 
     500 1.4894125e+26    9674414.6            0     49323054 2.4119113e+12 1.095912e-05 
     600 6.5856146e+26     15802984            0 1.9111415e+08 8.2173383e+12 1.4222868e-05 
     700 1.6049306e+27    7780225.6            0 4.3501789e+08 1.1116798e+13 2.5621147e-05 
     800 2.0641315e+27     10190297            0 5.5966872e+08 1.0139154e+13 3.6129144e-05 
     900 2.1093158e+27    5335915.4            0 5.6684254e+08 7.2533603e+12 5.1608873e-05 
    1000 2.1069119e+27      3402770            0 5.6426946e+08 5.8963553e+12 6.341394e-05 
Loop time of 20.412 on 1 procs for 1000 steps with 12855 atoms

97.1% CPU use with 1 MPI tasks x 1 OpenMP threads

MPI task timing breakdown:
Section |  min time  |  avg time  |  max time  |%varavg| %total
---------------------------------------------------------------
Pair    | 19.093     | 19.093     | 19.093     |   0.0 | 93.54
Neigh   | 0.19306    | 0.19306    | 0.19306    |   0.0 |  0.95
Comm    | 0.0054266  | 0.0054266  | 0.0054266  |   0.0 |  0.03
Output  | 0.0345     | 0.0345     | 0.0345     |   0.0 |  0.17
Modify  | 0.83845    | 0.83845    | 0.83845    |   0.0 |  4.11
Other   |            | 0.2478     |            |       |  1.21

Nlocal:    12855 ave 12855 max 12855 min
Histogram: 1 0 0 0 0 0 0 0 0 0
Nghost:    0 ave 0 max 0 min
Histogram: 1 0 0 0 0 0 0 0 0 0
Neighs:    333396 ave 333396 max 333396 min
Histogram: 1 0 0 0 0 0 0 0 0 0
FullNghs:  674306 ave 674306 max 674306 min
Histogram: 1 0 0 0 0 0 0 0 0 0

Total # of neighbors = 674306
Ave neighs/atom = 52.4548
Neighbor list builds = 14
Dangerous builds = 0

# SAVE INDENTER
print $x file Data/indenter_${count}.txt
print -0.00148 file Data/indenter_${count}.txt
print -0.00148 file Data/indenter_40.txt
-0.00148
print $z append Data/indenter_${count}.txt
print 1.81247726273808e-19 append Data/indenter_${count}.txt
print 1.81247726273808e-19 append Data/indenter_40.txt
1.81247726273808e-19
print $w append Data/indenter_${count}.txt
print 0.003 append Data/indenter_${count}.txt
print 0.003 append Data/indenter_40.txt
0.003
print $q append Data/indenter_${count}.txt
print 1.001 append Data/indenter_${count}.txt
print 1.001 append Data/indenter_40.txt
1.001

next j
next count
jump SELF start_of_loop_4
variable j loop ${jmax}
variable j loop 20
clear
WARNING: OMP_NUM_THREADS environment is not set. (../comm.cpp:90)
  using 1 OpenMP thread(s) per MPI task

# DEFINE INITIAL CONDITIONS
# small Peridynamic cylinder hit by projectile
units		si
boundary        s s s
dimension	3
atom_style      peri
atom_modify	map array
neighbor        0.0010 bin

# small target
lattice         sc 0.001
Lattice spacing in x,y,z = 0.001 0.001 0.001
region          target cylinder y 0.0 0.0 0.037 -0.0025 0.0 units box
create_box      1 target
Created orthogonal box = (-0.037 -0.0025 -0.037) to (0.037 0 0.037)
  1 by 1 by 1 MPI processor grid
create_atoms    1 region target
Created 12855 atoms

pair_style      peri/pmb
pair_coeff      * * 1.6863e22 0.0015001 0.0005 0.25
set             group all density 2200
  12855 settings made for density
set             group all volume 1.25e-10
  12855 settings made for volume
velocity        all set 0.0 0.0 0.0 sum no units box
fix             1 all nve
fix             2 all indent 1e16 sphere v_x v_y v_z v_w units box


print "Iteration:  i = $i , j = $j, k = $k, l = $l "
Iteration:  i = 4 , j = 11, k = 1, l = 1 

print " "
 
print " "
 
print "----------------------------------------------------------------"
----------------------------------------------------------------
print "Iteration ${count} of ${countmax}"
Iteration 41 of 2325
print "----------------------------------------------------------------"
----------------------------------------------------------------
print " "
 

# Reset current timestep
reset_timestep 0

# spherical indenter to shatter target

#q is velocity for indent.txt
variable         q equal "1+(0.001*v_l)"

# indenter radius (w) for indent.txt
variable         w equal "0.0020+(0.001*v_k)"

#disk radius(v_r)
variable r equal 0.037

variable        y0 equal 0.00510
variable        vy equal -100
variable        y equal "v_y0 + v_q*step*dt*v_vy"

#Hit the whole disk
#variable        x equal "cos((PI/2)*v_i/v_imax)*((v_i-1)/v_imax*v_r)"
#variable        z equal "sin((PI/2)*v_j/v_jmax)*((v_j-1)/v_jmax*v_r)"

#Hit the disk reduced 5times compare to disk size
variable        x equal "cos((2*PI)*v_j/v_jmax)*(v_i/v_imax)*v_r*(0.3)"
variable        z equal "sin((2*PI)*v_j/v_jmax)*(v_i/v_imax)*v_r*(0.3)"

compute         1 all damage/atom
timestep        1.0e-7
thermo          100

dump            ${count} all custom 1000 Data/dump_${count}.peri id type x y z c_1
dump            41 all custom 1000 Data/dump_${count}.peri id type x y z c_1
dump            41 all custom 1000 Data/dump_41.peri id type x y z c_1

run             1000
Neighbor list info ...
  2 neighbor list requests
  update every 1 steps, delay 10 steps, check yes
  max neighbors/atom: 2000, page size: 100000
  master list distance cutoff = 0.0025001
  ghost atom cutoff = 0.0025001
  binsize = 0.00125005 -> bins = 60 3 60
Peridynamic bonds:
  total # of bonds = 185180
  bonds/atom = 14.4053
Memory usage per processor = 9.32606 Mbytes
Step Temp E_pair E_mol TotEng Press Volume 
       0            0            0            0            0            0 1.095912e-05 
     100            0            0            0            0            0 1.095912e-05 
     200            0            0            0            0            0 1.095912e-05 
     300 8.2658744e+22    29558.397            0    51562.419 1.3385518e+09 1.095912e-05 
     400 9.4975781e+24    1515100.2            0      4043386 1.5380102e+11 1.095912e-05 
     500 1.4978413e+26    8761455.7            0     48634472 2.4255607e+12 1.095912e-05 
     600 6.2120724e+26     15295529            0 1.8066289e+08 7.8181601e+12 1.4101132e-05 
     700 1.5091353e+27     10753069            0 4.1248973e+08 1.2340763e+13 2.1702422e-05 
     800 2.0572458e+27    4469682.6            0 5.521151e+08 1.0963901e+13 3.3299914e-05 
     900 2.115618e+27    4214619.1            0 5.6739892e+08 7.9041381e+12 4.750122e-05 
    1000 2.1171083e+27    3554737.5            0 5.6713575e+08 6.1536985e+12 6.1056074e-05 
Loop time of 20.4504 on 1 procs for 1000 steps with 12855 atoms

96.9% CPU use with 1 MPI tasks x 1 OpenMP threads

MPI task timing breakdown:
Section |  min time  |  avg time  |  max time  |%varavg| %total
---------------------------------------------------------------
Pair    | 19.13      | 19.13      | 19.13      |   0.0 | 93.54
Neigh   | 0.18193    | 0.18193    | 0.18193    |   0.0 |  0.89
Comm    | 0.0053277  | 0.0053277  | 0.0053277  |   0.0 |  0.03
Output  | 0.036535   | 0.036535   | 0.036535   |   0.0 |  0.18
Modify  | 0.83637    | 0.83637    | 0.83637    |   0.0 |  4.09
Other   |            | 0.2601     |            |       |  1.27

Nlocal:    12855 ave 12855 max 12855 min
Histogram: 1 0 0 0 0 0 0 0 0 0
Nghost:    0 ave 0 max 0 min
Histogram: 1 0 0 0 0 0 0 0 0 0
Neighs:    333594 ave 333594 max 333594 min
Histogram: 1 0 0 0 0 0 0 0 0 0
FullNghs:  674306 ave 674306 max 674306 min
Histogram: 1 0 0 0 0 0 0 0 0 0

Total # of neighbors = 674306
Ave neighs/atom = 52.4548
Neighbor list builds = 14
Dangerous builds = 0

# SAVE INDENTER
print $x file Data/indenter_${count}.txt
print -0.00140756364411683 file Data/indenter_${count}.txt
print -0.00140756364411683 file Data/indenter_41.txt
-0.00140756364411683
print $z append Data/indenter_${count}.txt
print -0.000457345151674921 append Data/indenter_${count}.txt
print -0.000457345151674921 append Data/indenter_41.txt
-0.000457345151674921
print $w append Data/indenter_${count}.txt
print 0.003 append Data/indenter_${count}.txt
print 0.003 append Data/indenter_41.txt
0.003
print $q append Data/indenter_${count}.txt
print 1.001 append Data/indenter_${count}.txt
print 1.001 append Data/indenter_41.txt
1.001

next j
next count
jump SELF start_of_loop_4
variable j loop ${jmax}
variable j loop 20
clear
WARNING: OMP_NUM_THREADS environment is not set. (../comm.cpp:90)
  using 1 OpenMP thread(s) per MPI task

# DEFINE INITIAL CONDITIONS
# small Peridynamic cylinder hit by projectile
units		si
boundary        s s s
dimension	3
atom_style      peri
atom_modify	map array
neighbor        0.0010 bin

# small target
lattice         sc 0.001
Lattice spacing in x,y,z = 0.001 0.001 0.001
region          target cylinder y 0.0 0.0 0.037 -0.0025 0.0 units box
create_box      1 target
Created orthogonal box = (-0.037 -0.0025 -0.037) to (0.037 0 0.037)
  1 by 1 by 1 MPI processor grid
create_atoms    1 region target
Created 12855 atoms

pair_style      peri/pmb
pair_coeff      * * 1.6863e22 0.0015001 0.0005 0.25
set             group all density 2200
  12855 settings made for density
set             group all volume 1.25e-10
  12855 settings made for volume
velocity        all set 0.0 0.0 0.0 sum no units box
fix             1 all nve
fix             2 all indent 1e16 sphere v_x v_y v_z v_w units box


print "Iteration:  i = $i , j = $j, k = $k, l = $l "
Iteration:  i = 4 , j = 12, k = 1, l = 1 

print " "
 
print " "
 
print "----------------------------------------------------------------"
----------------------------------------------------------------
print "Iteration ${count} of ${countmax}"
Iteration 42 of 2325
print "----------------------------------------------------------------"
----------------------------------------------------------------
print " "
 

# Reset current timestep
reset_timestep 0

# spherical indenter to shatter target

#q is velocity for indent.txt
variable         q equal "1+(0.001*v_l)"

# indenter radius (w) for indent.txt
variable         w equal "0.0020+(0.001*v_k)"

#disk radius(v_r)
variable r equal 0.037

variable        y0 equal 0.00510
variable        vy equal -100
variable        y equal "v_y0 + v_q*step*dt*v_vy"

#Hit the whole disk
#variable        x equal "cos((PI/2)*v_i/v_imax)*((v_i-1)/v_imax*v_r)"
#variable        z equal "sin((PI/2)*v_j/v_jmax)*((v_j-1)/v_jmax*v_r)"

#Hit the disk reduced 5times compare to disk size
variable        x equal "cos((2*PI)*v_j/v_jmax)*(v_i/v_imax)*v_r*(0.3)"
variable        z equal "sin((2*PI)*v_j/v_jmax)*(v_i/v_imax)*v_r*(0.3)"

compute         1 all damage/atom
timestep        1.0e-7
thermo          100

dump            ${count} all custom 1000 Data/dump_${count}.peri id type x y z c_1
dump            42 all custom 1000 Data/dump_${count}.peri id type x y z c_1
dump            42 all custom 1000 Data/dump_42.peri id type x y z c_1

run             1000
Neighbor list info ...
  2 neighbor list requests
  update every 1 steps, delay 10 steps, check yes
  max neighbors/atom: 2000, page size: 100000
  master list distance cutoff = 0.0025001
  ghost atom cutoff = 0.0025001
  binsize = 0.00125005 -> bins = 60 3 60
Peridynamic bonds:
  total # of bonds = 185180
  bonds/atom = 14.4053
Memory usage per processor = 9.32606 Mbytes
Step Temp E_pair E_mol TotEng Press Volume 
       0            0            0            0            0            0 1.095912e-05 
     100            0            0            0            0            0 1.095912e-05 
     200            0            0            0            0            0 1.095912e-05 
     300 8.4271565e+22    29377.398            0    51810.758 1.3646693e+09 1.095912e-05 
     400 9.4426908e+24   