LAMMPS (17 Nov 2015)
WARNING: OMP_NUM_THREADS environment is not set. (../comm.cpp:90)
  using 1 OpenMP thread(s) per MPI task
# DEFINE NUMBER OF X,Z STEPS
# l = velocity k = indenter radius i, j = hiting location
variable imax equal 50
variable jmax equal 20
variable kmax equal 1
variable lmax equal 1
variable countmax equal "v_imax*v_jmax*v_kmax*v_lmax"

# DEFINE TOTAL NUMBER OF STEPS
variable count loop ${countmax}
variable count loop 1000

print "imax = ${imax}"
imax = 50
print "jmax = ${jmax}"
jmax = 20
print "kmax = ${kmax}"
kmax = 1
print "lmax = ${lmax}"
lmax = 1

# START LOOPS
# Loop 1
label start_of_loop_1
variable l loop ${lmax}
variable l loop 1

# Loop 2
label start_of_loop_2
variable k loop ${kmax}
variable k loop 1

# Loop 3
label start_of_loop_3
variable i loop ${imax}
variable i loop 50

# Loop 4
label start_of_loop_4
variable j loop ${jmax}
variable j loop 20
clear
WARNING: OMP_NUM_THREADS environment is not set. (../comm.cpp:90)
  using 1 OpenMP thread(s) per MPI task

# DEFINE INITIAL CONDITIONS
# small Peridynamic cylinder hit by projectile
units		si
boundary        s s s
dimension	3
atom_style      peri
atom_modify	map array
neighbor        0.0010 bin

# small target
lattice         sc 0.001
Lattice spacing in x,y,z = 0.001 0.001 0.001
region          target cylinder y 0.0 0.0 0.037 -0.0025 0.0 units box
create_box      1 target
Created orthogonal box = (-0.037 -0.0025 -0.037) to (0.037 0 0.037)
  1 by 1 by 1 MPI processor grid
create_atoms    1 region target
Created 12855 atoms

pair_style      peri/pmb
pair_coeff      * * 1.6863e22 0.0015001 0.0005 0.25
set             group all density 2200
  12855 settings made for density
set             group all volume 1.25e-10
  12855 settings made for volume
velocity        all set 0.0 0.0 0.0 sum no units box
fix             1 all nve
fix             2 all indent 1e16 sphere v_x v_y v_z v_w units box


print "Iteration:  i = $i , j = $j, k = $k, l = $l "
Iteration:  i = 1 , j = 1, k = 1, l = 1 

variable adj_count equal "1000 + v_count"

print " "
 
print " "
 
print "----------------------------------------------------------------"
----------------------------------------------------------------
print "Iteration ${count} of ${countmax}"
Iteration 1 of 1000
print "----------------------------------------------------------------"
----------------------------------------------------------------
print " "
 

# Reset current timestep
reset_timestep 0

# spherical indenter to shatter target

#q is velocity for indent.txt
variable         q equal "1+(0.001*v_l)"

# indenter radius (w) for indent.txt
variable         w equal "0.0020+(0.001*v_k)"

#disk radius(v_r)
variable r equal 0.037

variable        y0 equal 0.00510
variable        vy equal -100
variable        y equal "v_y0 + v_q*step*dt*v_vy"

#Hit the whole disk
#variable        x equal "cos((PI/2)*v_i/v_imax)*((v_i-1)/v_imax*v_r)"
#variable        z equal "sin((PI/2)*v_j/v_jmax)*((v_j-1)/v_jmax*v_r)"

#Hit the disk reduced 5times compare to disk size
variable        x equal "cos((2*PI)*(v_i/v_imax + 0.5*v_i/v_imax))*(v_j/v_jmax + 0.5/v_jmax)*v_r*(0.5)"
variable        z equal "sin((2*PI)*(v_i/v_imax + 0.5*v_i/v_imax))*(v_j/v_jmax + 0.5/v_jmax)*v_r*(0.5)"

compute         1 all damage/atom
timestep        1.0e-7
thermo          100

dump            ${adj_count} all custom 1000 Data/dump_${adj_count}.peri id type x y z c_1
dump            1001 all custom 1000 Data/dump_${adj_count}.peri id type x y z c_1
dump            1001 all custom 1000 Data/dump_1001.peri id type x y z c_1

run             1000
Neighbor list info ...
  2 neighbor list requests
  update every 1 steps, delay 10 steps, check yes
  max neighbors/atom: 2000, page size: 100000
  master list distance cutoff = 0.0025001
  ghost atom cutoff = 0.0025001
  binsize = 0.00125005 -> bins = 60 3 60
Peridynamic bonds:
  total # of bonds = 185180
  bonds/atom = 14.4053
Memory usage per processor = 9.32606 Mbytes
Step Temp E_pair E_mol TotEng Press Volume 
       0            0            0            0            0            0 1.095912e-05 
     100            0            0            0            0            0 1.095912e-05 
     200            0            0            0            0            0 1.095912e-05 
     300 8.3193848e+22    29514.785            0    51661.254 1.3472171e+09 1.095912e-05 
     400 9.3386238e+24    1487111.1            0    3973082.7 1.5122696e+11 1.095912e-05 
     500 1.4825063e+26    9519210.2            0     48984003 2.4007276e+12 1.095912e-05 
     600 6.3437653e+26     17365890            0 1.8623895e+08 7.9998776e+12 1.4072971e-05 
     700 1.5221564e+27     10201411            0 4.1540433e+08 1.2114078e+13 2.2299286e-05 
     800 2.0481528e+27    4890058.4            0 5.501149e+08 9.6322172e+12 3.7736195e-05 
     900 2.1033481e+27      4227787            0 5.6414579e+08 7.0064398e+12 5.3276511e-05 
    1000 2.1017992e+27    3285398.9            0 5.6279107e+08 5.4315708e+12 6.867328e-05 
Loop time of 20.0385 on 1 procs for 1000 steps with 12855 atoms

98.0% CPU use with 1 MPI tasks x 1 OpenMP threads

MPI task timing breakdown:
Section |  min time  |  avg time  |  max time  |%varavg| %total
---------------------------------------------------------------
Pair    | 18.854     | 18.854     | 18.854     |   0.0 | 94.09
Neigh   | 0.20122    | 0.20122    | 0.20122    |   0.0 |  1.00
Comm    | 0.0052526  | 0.0052526  | 0.0052526  |   0.0 |  0.03
Output  | 0.039217   | 0.039217   | 0.039217   |   0.0 |  0.20
Modify  | 0.73461    | 0.73461    | 0.73461    |   0.0 |  3.67
Other   |            | 0.2045     |            |       |  1.02

Nlocal:    12855 ave 12855 max 12855 min
Histogram: 1 0 0 0 0 0 0 0 0 0
Nghost:    0 ave 0 max 0 min
Histogram: 1 0 0 0 0 0 0 0 0 0
Neighs:    333322 ave 333322 max 333322 min
Histogram: 1 0 0 0 0 0 0 0 0 0
FullNghs:  674306 ave 674306 max 674306 min
Histogram: 1 0 0 0 0 0 0 0 0 0

Total # of neighbors = 674306
Ave neighs/atom = 52.4548
Neighbor list builds = 15
Dangerous builds = 0

# SAVE INDENTER
print $x file Data/indenter_${adj_count}.txt
print 0.00136292356038606 file Data/indenter_${adj_count}.txt
print 0.00136292356038606 file Data/indenter_1001.txt
0.00136292356038606
print $z append Data/indenter_${adj_count}.txt
print 0.000259991573987693 append Data/indenter_${adj_count}.txt
print 0.000259991573987693 append Data/indenter_1001.txt
0.000259991573987693
print $w append Data/indenter_${adj_count}.txt
print 0.003 append Data/indenter_${adj_count}.txt
print 0.003 append Data/indenter_1001.txt
0.003
print $q append Data/indenter_${adj_count}.txt
print 1.001 append Data/indenter_${adj_count}.txt
print 1.001 append Data/indenter_1001.txt
1.001

next j
next count
jump SELF start_of_loop_4
variable j loop ${jmax}
variable j loop 20
clear
WARNING: OMP_NUM_THREADS environment is not set. (../comm.cpp:90)
  using 1 OpenMP thread(s) per MPI task

# DEFINE INITIAL CONDITIONS
# small Peridynamic cylinder hit by projectile
units		si
boundary        s s s
dimension	3
atom_style      peri
atom_modify	map array
neighbor        0.0010 bin

# small target
lattice         sc 0.001
Lattice spacing in x,y,z = 0.001 0.001 0.001
region          target cylinder y 0.0 0.0 0.037 -0.0025 0.0 units box
create_box      1 target
Created orthogonal box = (-0.037 -0.0025 -0.037) to (0.037 0 0.037)
  1 by 1 by 1 MPI processor grid
create_atoms    1 region target
Created 12855 atoms

pair_style      peri/pmb
pair_coeff      * * 1.6863e22 0.0015001 0.0005 0.25
set             group all density 2200
  12855 settings made for density
set             group all volume 1.25e-10
  12855 settings made for volume
velocity        all set 0.0 0.0 0.0 sum no units box
fix             1 all nve
fix             2 all indent 1e16 sphere v_x v_y v_z v_w units box


print "Iteration:  i = $i , j = $j, k = $k, l = $l "
Iteration:  i = 1 , j = 2, k = 1, l = 1 

variable adj_count equal "1000 + v_count"

print " "
 
print " "
 
print "----------------------------------------------------------------"
----------------------------------------------------------------
print "Iteration ${count} of ${countmax}"
Iteration 2 of 1000
print "----------------------------------------------------------------"
----------------------------------------------------------------
print " "
 

# Reset current timestep
reset_timestep 0

# spherical indenter to shatter target

#q is velocity for indent.txt
variable         q equal "1+(0.001*v_l)"

# indenter radius (w) for indent.txt
variable         w equal "0.0020+(0.001*v_k)"

#disk radius(v_r)
variable r equal 0.037

variable        y0 equal 0.00510
variable        vy equal -100
variable        y equal "v_y0 + v_q*step*dt*v_vy"

#Hit the whole disk
#variable        x equal "cos((PI/2)*v_i/v_imax)*((v_i-1)/v_imax*v_r)"
#variable        z equal "sin((PI/2)*v_j/v_jmax)*((v_j-1)/v_jmax*v_r)"

#Hit the disk reduced 5times compare to disk size
variable        x equal "cos((2*PI)*(v_i/v_imax + 0.5*v_i/v_imax))*(v_j/v_jmax + 0.5/v_jmax)*v_r*(0.5)"
variable        z equal "sin((2*PI)*(v_i/v_imax + 0.5*v_i/v_imax))*(v_j/v_jmax + 0.5/v_jmax)*v_r*(0.5)"

compute         1 all damage/atom
timestep        1.0e-7
thermo          100

dump            ${adj_count} all custom 1000 Data/dump_${adj_count}.peri id type x y z c_1
dump            1002 all custom 1000 Data/dump_${adj_count}.peri id type x y z c_1
dump            1002 all custom 1000 Data/dump_1002.peri id type x y z c_1

run             1000
Neighbor list info ...
  2 neighbor list requests
  update every 1 steps, delay 10 steps, check yes
  max neighbors/atom: 2000, page size: 100000
  master list distance cutoff = 0.0025001
  ghost atom cutoff = 0.0025001
  binsize = 0.00125005 -> bins = 60 3 60
Peridynamic bonds:
  total # of bonds = 185180
  bonds/atom = 14.4053
Memory usage per processor = 9.32606 Mbytes
Step Temp E_pair E_mol TotEng Press Volume 
       0            0            0            0            0            0 1.095912e-05 
     100            0            0            0            0            0 1.095912e-05 
     200            0            0            0            0            0 1.095912e-05 
     300 8.3000707e+22    29535.806            0     51630.86 1.3440894e+09 1.095912e-05 
     400 9.245254e+24    1519119.3            0    3980235.5 1.4971495e+11 1.095912e-05 
     500 1.4767237e+26    9032656.2            0     48343515 2.3913634e+12 1.095912e-05 
     600 6.2023289e+26     16016844            0 1.8112483e+08 7.8462012e+12 1.4028698e-05 
     700 1.5079758e+27    7676126.5            0 4.0910411e+08 1.2042383e+13 2.2223065e-05 
     800 2.0228481e+27      5068773            0 5.4355741e+08 9.527203e+12 3.7680778e-05 
     900 2.0823385e+27      3859865            0 5.5818504e+08 7.5954956e+12 4.8653851e-05 
    1000 2.0762107e+27    3854935.1            0 5.5654887e+08 5.8530859e+12 6.2951856e-05 
Loop time of 19.9411 on 1 procs for 1000 steps with 12855 atoms

98.1% CPU use with 1 MPI tasks x 1 OpenMP threads

MPI task timing breakdown:
Section |  min time  |  avg time  |  max time  |%varavg| %total
---------------------------------------------------------------
Pair    | 18.786     | 18.786     | 18.786     |   0.0 | 94.21
Neigh   | 0.18133    | 0.18133    | 0.18133    |   0.0 |  0.91
Comm    | 0.0047586  | 0.0047586  | 0.0047586  |   0.0 |  0.02
Output  | 0.038473   | 0.038473   | 0.038473   |   0.0 |  0.19
Modify  | 0.72985    | 0.72985    | 0.72985    |   0.0 |  3.66
Other   |            | 0.2005     |            |       |  1.01

Nlocal:    12855 ave 12855 max 12855 min
Histogram: 1 0 0 0 0 0 0 0 0 0
Nghost:    0 ave 0 max 0 min
Histogram: 1 0 0 0 0 0 0 0 0 0
Neighs:    333389 ave 333389 max 333389 min
Histogram: 1 0 0 0 0 0 0 0 0 0
FullNghs:  674306 ave 674306 max 674306 min
Histogram: 1 0 0 0 0 0 0 0 0 0

Total # of neighbors = 674306
Ave neighs/atom = 52.4548
Neighbor list builds = 14
Dangerous builds = 0

# SAVE INDENTER
print $x file Data/indenter_${adj_count}.txt
print 0.00227153926731009 file Data/indenter_${adj_count}.txt
print 0.00227153926731009 file Data/indenter_1002.txt
0.00227153926731009
print $z append Data/indenter_${adj_count}.txt
print 0.000433319289979488 append Data/indenter_${adj_count}.txt
print 0.000433319289979488 append Data/indenter_1002.txt
0.000433319289979488
print $w append Data/indenter_${adj_count}.txt
print 0.003 append Data/indenter_${adj_count}.txt
print 0.003 append Data/indenter_1002.txt
0.003
print $q append Data/indenter_${adj_count}.txt
print 1.001 append Data/indenter_${adj_count}.txt
print 1.001 append Data/indenter_1002.txt
1.001

next j
next count
jump SELF start_of_loop_4
variable j loop ${jmax}
variable j loop 20
clear
WARNING: OMP_NUM_THREADS environment is not set. (../comm.cpp:90)
  using 1 OpenMP thread(s) per MPI task

# DEFINE INITIAL CONDITIONS
# small Peridynamic cylinder hit by projectile
units		si
boundary        s s s
dimension	3
atom_style      peri
atom_modify	map array
neighbor        0.0010 bin

# small target
lattice         sc 0.001
Lattice spacing in x,y,z = 0.001 0.001 0.001
region          target cylinder y 0.0 0.0 0.037 -0.0025 0.0 units box
create_box      1 target
Created orthogonal box = (-0.037 -0.0025 -0.037) to (0.037 0 0.037)
  1 by 1 by 1 MPI processor grid
create_atoms    1 region target
Created 12855 atoms

pair_style      peri/pmb
pair_coeff      * * 1.6863e22 0.0015001 0.0005 0.25
set             group all density 2200
  12855 settings made for density
set             group all volume 1.25e-10
  12855 settings made for volume
velocity        all set 0.0 0.0 0.0 sum no units box
fix             1 all nve
fix             2 all indent 1e16 sphere v_x v_y v_z v_w units box


print "Iteration:  i = $i , j = $j, k = $k, l = $l "
Iteration:  i = 1 , j = 3, k = 1, l = 1 

variable adj_count equal "1000 + v_count"

print " "
 
print " "
 
print "----------------------------------------------------------------"
----------------------------------------------------------------
print "Iteration ${count} of ${countmax}"
Iteration 3 of 1000
print "----------------------------------------------------------------"
----------------------------------------------------------------
print " "
 

# Reset current timestep
reset_timestep 0

# spherical indenter to shatter target

#q is velocity for indent.txt
variable         q equal "1+(0.001*v_l)"

# indenter radius (w) for indent.txt
variable         w equal "0.0020+(0.001*v_k)"

#disk radius(v_r)
variable r equal 0.037

variable        y0 equal 0.00510
variable        vy equal -100
variable        y equal "v_y0 + v_q*step*dt*v_vy"

#Hit the whole disk
#variable        x equal "cos((PI/2)*v_i/v_imax)*((v_i-1)/v_imax*v_r)"
#variable        z equal "sin((PI/2)*v_j/v_jmax)*((v_j-1)/v_jmax*v_r)"

#Hit the disk reduced 5times compare to disk size
variable        x equal "cos((2*PI)*(v_i/v_imax + 0.5*v_i/v_imax))*(v_j/v_jmax + 0.5/v_jmax)*v_r*(0.5)"
variable        z equal "sin((2*PI)*(v_i/v_imax + 0.5*v_i/v_imax))*(v_j/v_jmax + 0.5/v_jmax)*v_r*(0.5)"

compute         1 all damage/atom
timestep        1.0e-7
thermo          100

dump            ${adj_count} all custom 1000 Data/dump_${adj_count}.peri id type x y z c_1
dump            1003 all custom 1000 Data/dump_${adj_count}.peri id type x y z c_1
dump            1003 all custom 1000 Data/dump_1003.peri id type x y z c_1

run             1000
Neighbor list info ...
  2 neighbor list requests
  update every 1 steps, delay 10 steps, check yes
  max neighbors/atom: 2000, page size: 100000
  master list distance cutoff = 0.0025001
  ghost atom cutoff = 0.0025001
  binsize = 0.00125005 -> bins = 60 3 60
Peridynamic bonds:
  total # of bonds = 185180
  bonds/atom = 14.4053
Memory usage per processor = 9.32606 Mbytes
Step Temp E_pair E_mol TotEng Press Volume 
       0            0            0            0            0            0 1.095912e-05 
     100            0            0            0            0            0 1.095912e-05 
     200            0            0            0            0            0 1.095912e-05 
     300 8.3371791e+22     29505.55            0    51699.388 1.3500987e+09 1.095912e-05 
     400 9.3388214e+24    1469129.3            0    3955153.5 1.5123016e+11 1.095912e-05 
     500 1.5055014e+26    9479274.6            0     49556204 2.4379651e+12 1.095912e-05 
     600 6.4468126e+26     17319443            0 1.8893566e+08 8.0221482e+12 1.4261867e-05 
     700 1.5527355e+27    8263509.6            0 4.2160667e+08 1.2614627e+13 2.1844649e-05 
     800 2.0576491e+27    8910774.7            0 5.5666355e+08 9.8311456e+12 3.7144045e-05 
     900 2.118198e+27    4680597.4            0 5.685517e+08 7.2175763e+12 5.2083144e-05 
    1000 2.1123723e+27    4751145.2            0 5.6707142e+08 5.9329136e+12 6.3186523e-05 
Loop time of 20.0715 on 1 procs for 1000 steps with 12855 atoms

97.8% CPU use with 1 MPI tasks x 1 OpenMP threads

MPI task timing breakdown:
Section |  min time  |  avg time  |  max time  |%varavg| %total
---------------------------------------------------------------
Pair    | 18.887     | 18.887     | 18.887     |   0.0 | 94.10
Neigh   | 0.18244    | 0.18244    | 0.18244    |   0.0 |  0.91
Comm    | 0.0048015  | 0.0048015  | 0.0048015  |   0.0 |  0.02
Output  | 0.046932   | 0.046932   | 0.046932   |   0.0 |  0.23
Modify  | 0.73793    | 0.73793    | 0.73793    |   0.0 |  3.68
Other   |            | 0.212      |            |       |  1.06

Nlocal:    12855 ave 12855 max 12855 min
Histogram: 1 0 0 0 0 0 0 0 0 0
Nghost:    0 ave 0 max 0 min
Histogram: 1 0 0 0 0 0 0 0 0 0
Neighs:    333629 ave 333629 max 333629 min
Histogram: 1 0 0 0 0 0 0 0 0 0
FullNghs:  674306 ave 674306 max 674306 min
Histogram: 1 0 0 0 0 0 0 0 0 0

Total # of neighbors = 674306
Ave neighs/atom = 52.4548
Neighbor list builds = 14
Dangerous builds = 0

# SAVE INDENTER
print $x file Data/indenter_${adj_count}.txt
print 0.00318015497423413 file Data/indenter_${adj_count}.txt
print 0.00318015497423413 file Data/indenter_1003.txt
0.00318015497423413
print $z append Data/indenter_${adj_count}.txt
print 0.000606647005971283 append Data/indenter_${adj_count}.txt
print 0.000606647005971283 append Data/indenter_1003.txt
0.000606647005971283
print $w append Data/indenter_${adj_count}.txt
print 0.003 append Data/indenter_${adj_count}.txt
print 0.003 append Data/indenter_1003.txt
0.003
print $q append Data/indenter_${adj_count}.txt
print 1.001 append Data/indenter_${adj_count}.txt
print 1.001 append Data/indenter_1003.txt
1.001

next j
next count
jump SELF start_of_loop_4
variable j loop ${jmax}
variable j loop 20
clear
WARNING: OMP_NUM_THREADS environment is not set. (../comm.cpp:90)
  using 1 OpenMP thread(s) per MPI task

# DEFINE INITIAL CONDITIONS
# small Peridynamic cylinder hit by projectile
units		si
boundary        s s s
dimension	3
atom_style      peri
atom_modify	map array
neighbor        0.0010 bin

# small target
lattice         sc 0.001
Lattice spacing in x,y,z = 0.001 0.001 0.001
region          target cylinder y 0.0 0.0 0.037 -0.0025 0.0 units box
create_box      1 target
Created orthogonal box = (-0.037 -0.0025 -0.037) to (0.037 0 0.037)
  1 by 1 by 1 MPI processor grid
create_atoms    1 region target
Created 12855 atoms

pair_style      peri/pmb
pair_coeff      * * 1.6863e22 0.0015001 0.0005 0.25
set             group all density 2200
  12855 settings made for density
set             group all volume 1.25e-10
  12855 settings made for volume
velocity        all set 0.0 0.0 0.0 sum no units box
fix             1 all nve
fix             2 all indent 1e16 sphere v_x v_y v_z v_w units box


print "Iteration:  i = $i , j = $j, k = $k, l = $l "
Iteration:  i = 1 , j = 4, k = 1, l = 1 

variable adj_count equal "1000 + v_count"

print " "
 
print " "
 
print "----------------------------------------------------------------"
----------------------------------------------------------------
print "Iteration ${count} of ${countmax}"
Iteration 4 of 1000
print "----------------------------------------------------------------"
----------------------------------------------------------------
print " "
 

# Reset current timestep
reset_timestep 0

# spherical indenter to shatter target

#q is velocity for indent.txt
variable         q equal "1+(0.001*v_l)"

# indenter radius (w) for indent.txt
variable         w equal "0.0020+(0.001*v_k)"

#disk radius(v_r)
variable r equal 0.037

variable        y0 equal 0.00510
variable        vy equal -100
variable        y equal "v_y0 + v_q*step*dt*v_vy"

#Hit the whole disk
#variable        x equal "cos((PI/2)*v_i/v_imax)*((v_i-1)/v_imax*v_r)"
#variable        z equal "sin((PI/2)*v_j/v_jmax)*((v_j-1)/v_jmax*v_r)"

#Hit the disk reduced 5times compare to disk size
variable        x equal "cos((2*PI)*(v_i/v_imax + 0.5*v_i/v_imax))*(v_j/v_jmax + 0.5/v_jmax)*v_r*(0.5)"
variable        z equal "sin((2*PI)*(v_i/v_imax + 0.5*v_i/v_imax))*(v_j/v_jmax + 0.5/v_jmax)*v_r*(0.5)"

compute         1 all damage/atom
timestep        1.0e-7
thermo          100

dump            ${adj_count} all custom 1000 Data/dump_${adj_count}.peri id type x y z c_1
dump            1004 all custom 1000 Data/dump_${adj_count}.peri id type x y z c_1
dump            1004 all custom 1000 Data/dump_1004.peri id type x y z c_1

run             1000
Neighbor list info ...
  2 neighbor list requests
  update every 1 steps, delay 10 steps, check yes
  max neighbors/atom: 2000, page size: 100000
  master list distance cutoff = 0.0025001
  ghost atom cutoff = 0.0025001
  binsize = 0.00125005 -> bins = 60 3 60
Peridynamic bonds:
  total # of bonds = 185180
  bonds/atom = 14.4053
Memory usage per processor = 9.32606 Mbytes
Step Temp E_pair E_mol TotEng Press Volume 
       0            0            0            0            0            0 1.095912e-05 
     100            0            0            0            0            0 1.095912e-05 
     200            0            0            0            0            0 1.095912e-05 
     300 8.4282801e+22    29379.451            0    51815.803 1.3648513e+09 1.095912e-05 
     400 9.4051438e+24    1399097.4            0    3902776.8 1.5230416e+11 1.095912e-05 
     500 1.5278272e+26    9603015.4            0     50274265 2.4741189e+12 1.095912e-05 
     600 6.4263576e+26     18361478            0 1.8943318e+08 8.3062706e+12 1.3730325e-05 
     700 1.5496987e+27     10194739            0 4.227295e+08 1.140519e+13 2.4113862e-05 
     800 2.0507572e+27    4058919.7            0 5.4997705e+08 9.4960394e+12 3.8326022e-05 
     900 2.0872833e+27    5360581.9            0 5.6100209e+08 7.1147537e+12 5.2064722e-05 
    1000 2.091559e+27    2767085.2            0 5.595468e+08 5.3612455e+12 6.9235121e-05 
Loop time of 19.9016 on 1 procs for 1000 steps with 12855 atoms

98.4% CPU use with 1 MPI tasks x 1 OpenMP threads

MPI task timing breakdown:
Section |  min time  |  avg time  |  max time  |%varavg| %total
---------------------------------------------------------------
Pair    | 18.71      | 18.71      | 18.71      |   0.0 | 94.01
Neigh   | 0.22383    | 0.22383    | 0.22383    |   0.0 |  1.12
Comm    | 0.0052776  | 0.0052776  | 0.0052776  |   0.0 |  0.03
Output  | 0.037502   | 0.037502   | 0.037502   |   0.0 |  0.19
Modify  | 0.72711    | 0.72711    | 0.72711    |   0.0 |  3.65
Other   |            | 0.1981     |            |       |  1.00

Nlocal:    12855 ave 12855 max 12855 min
Histogram: 1 0 0 0 0 0 0 0 0 0
Nghost:    0 ave 0 max 0 min
Histogram: 1 0 0 0 0 0 0 0 0 0
Neighs:    333627 ave 333627 max 333627 min
Histogram: 1 0 0 0 0 0 0 0 0 0
FullNghs:  674306 ave 674306 max 674306 min
Histogram: 1 0 0 0 0 0 0 0 0 0

Total # of neighbors = 674306
Ave neighs/atom = 52.4548
Neighbor list builds = 17
Dangerous builds = 0

# SAVE INDENTER
print $x file Data/indenter_${adj_count}.txt
print 0.00408877068115817 file Data/indenter_${adj_count}.txt
print 0.00408877068115817 file Data/indenter_1004.txt
0.00408877068115817
print $z append Data/indenter_${adj_count}.txt
print 0.000779974721963079 append Data/indenter_${adj_count}.txt
print 0.000779974721963079 append Data/indenter_1004.txt
0.000779974721963079
print $w append Data/indenter_${adj_count}.txt
print 0.003 append Data/indenter_${adj_count}.txt
print 0.003 append Data/indenter_1004.txt
0.003
print $q append Data/indenter_${adj_count}.txt
print 1.001 append Data/indenter_${adj_count}.txt
print 1.001 append Data/indenter_1004.txt
1.001

next j
next count
jump SELF start_of_loop_4
variable j loop ${jmax}
variable j loop 20
clear
WARNING: OMP_NUM_THREADS environment is not set. (../comm.cpp:90)
  using 1 OpenMP thread(s) per MPI task

# DEFINE INITIAL CONDITIONS
# small Peridynamic cylinder hit by projectile
units		si
boundary        s s s
dimension	3
atom_style      peri
atom_modify	map array
neighbor        0.0010 bin

# small target
lattice         sc 0.001
Lattice spacing in x,y,z = 0.001 0.001 0.001
region          target cylinder y 0.0 0.0 0.037 -0.0025 0.0 units box
create_box      1 target
Created orthogonal box = (-0.037 -0.0025 -0.037) to (0.037 0 0.037)
  1 by 1 by 1 MPI processor grid
create_atoms    1 region target
Created 12855 atoms

pair_style      peri/pmb
pair_coeff      * * 1.6863e22 0.0015001 0.0005 0.25
set             group all density 2200
  12855 settings made for density
set             group all volume 1.25e-10
  12855 settings made for volume
velocity        all set 0.0 0.0 0.0 sum no units box
fix             1 all nve
fix             2 all indent 1e16 sphere v_x v_y v_z v_w units box


print "Iteration:  i = $i , j = $j, k = $k, l = $l "
Iteration:  i = 1 , j = 5, k = 1, l = 1 

variable adj_count equal "1000 + v_count"

print " "
 
print " "
 
print "----------------------------------------------------------------"
----------------------------------------------------------------
print "Iteration ${count} of ${countmax}"
Iteration 5 of 1000
print "----------------------------------------------------------------"
----------------------------------------------------------------
print " "
 

# Reset current timestep
reset_timestep 0

# spherical indenter to shatter target

#q is velocity for indent.txt
variable         q equal "1+(0.001*v_l)"

# indenter radius (w) for indent.txt
variable         w equal "0.0020+(0.001*v_k)"

#disk radius(v_r)
variable r equal 0.037

variable        y0 equal 0.00510
variable        vy equal -100
variable        y equal "v_y0 + v_q*step*dt*v_vy"

#Hit the whole disk
#variable        x equal "cos((PI/2)*v_i/v_imax)*((v_i-1)/v_imax*v_r)"
#variable        z equal "sin((PI/2)*v_j/v_jmax)*((v_j-1)/v_jmax*v_r)"

#Hit the disk reduced 5times compare to disk size
variable        x equal "cos((2*PI)*(v_i/v_imax + 0.5*v_i/v_imax))*(v_j/v_jmax + 0.5/v_jmax)*v_r*(0.5)"
variable        z equal "sin((2*PI)*(v_i/v_imax + 0.5*v_i/v_imax))*(v_j/v_jmax + 0.5/v_jmax)*v_r*(0.5)"

compute         1 all damage/atom
timestep        1.0e-7
thermo          100

dump            ${adj_count} all custom 1000 Data/dump_${adj_count}.peri id type x y z c_1
dump            1005 all custom 1000 Data/dump_${adj_count}.peri id type x y z c_1
dump            1005 all custom 1000 Data/dump_1005.peri id type x y z c_1

run             1000
Neighbor list info ...
  2 neighbor list requests
  update every 1 steps, delay 10 steps, check yes
  max neighbors/atom: 2000, page size: 100000
  master list distance cutoff = 0.0025001
  ghost atom cutoff = 0.0025001
  binsize = 0.00125005 -> bins = 60 3 60
Peridynamic bonds:
  total # of bonds = 185180
  bonds/atom = 14.4053
Memory usage per processor = 9.32606 Mbytes
Step Temp E_pair E_mol TotEng Press Volume 
       0            0            0            0            0            0 1.095912e-05 
     100            0            0            0            0            0 1.095912e-05 
     200            0            0            0            0            0 1.095912e-05 
     300 8.4904968e+22    29272.141            0    51874.116 1.3749265e+09 1.095912e-05 
     400 9.5342785e+24    1296104.9            0    3834160.3 1.5439533e+11 1.095912e-05 
     500 1.6204599e+26    9101036.9            0     52238198 2.6241256e+12 1.095912e-05 
     600 8.1319755e+26     13100209            0  2.29576e+08 1.0749165e+13 1.3425899e-05 
     700 1.729058e+27     12473354            0 4.7275414e+08 1.2606496e+13 2.4340931e-05 
     800 2.1400874e+27    9193336.9            0 5.7889146e+08 8.8741792e+12 4.2798183e-05 
     900 2.2088789e+27    4933621.4            0 5.9294425e+08 6.8155302e+12 5.7516741e-05 
    1000 2.2070807e+27    4859763.3            0 5.9239172e+08 5.4219254e+12 7.224149e-05 
Loop time of 19.8522 on 1 procs for 1000 steps with 12855 atoms

98.6% CPU use with 1 MPI tasks x 1 OpenMP threads

MPI task timing breakdown:
Section |  min time  |  avg time  |  max time  |%varavg| %total
---------------------------------------------------------------
Pair    | 18.651     | 18.651     | 18.651     |   0.0 | 93.95
Neigh   | 0.22064    | 0.22064    | 0.22064    |   0.0 |  1.11
Comm    | 0.005259   | 0.005259   | 0.005259   |   0.0 |  0.03
Output  | 0.060508   | 0.060508   | 0.060508   |   0.0 |  0.30
Modify  | 0.71239    | 0.71239    | 0.71239    |   0.0 |  3.59
Other   |            | 0.2027     |            |       |  1.02

Nlocal:    12855 ave 12855 max 12855 min
Histogram: 1 0 0 0 0 0 0 0 0 0
Nghost:    0 ave 0 max 0 min
Histogram: 1 0 0 0 0 0 0 0 0 0
Neighs:    333278 ave 333278 max 333278 min
Histogram: 1 0 0 0 0 0 0 0 0 0
FullNghs:  674306 ave 674306 max 674306 min
Histogram: 1 0 0 0 0 0 0 0 0 0

Total # of neighbors = 674306
Ave neighs/atom = 52.4548
Neighbor list builds = 17
Dangerous builds = 0

# SAVE INDENTER
print $x file Data/indenter_${adj_count}.txt
print 0.0049973863880822 file Data/indenter_${adj_count}.txt
print 0.0049973863880822 file Data/indenter_1005.txt
0.0049973863880822
print $z append Data/indenter_${adj_count}.txt
print 0.000953302437954874 append Data/indenter_${adj_count}.txt
print 0.000953302437954874 append Data/indenter_1005.txt
0.000953302437954874
print $w append Data/indenter_${adj_count}.txt
print 0.003 append Data/indenter_${adj_count}.txt
print 0.003 append Data/indenter_1005.txt
0.003
print $q append Data/indenter_${adj_count}.txt
print 1.001 append Data/indenter_${adj_count}.txt
print 1.001 append Data/indenter_1005.txt
1.001

next j
next count
jump SELF start_of_loop_4
variable j loop ${jmax}
variable j loop 20
clear
WARNING: OMP_NUM_THREADS environment is not set. (../comm.cpp:90)
  using 1 OpenMP thread(s) per MPI task

# DEFINE INITIAL CONDITIONS
# small Peridynamic cylinder hit by projectile
units		si
boundary        s s s
dimension	3
atom_style      peri
atom_modify	map array
neighbor        0.0010 bin

# small target
lattice         sc 0.001
Lattice spacing in x,y,z = 0.001 0.001 0.001
region          target cylinder y 0.0 0.0 0.037 -0.0025 0.0 units box
create_box      1 target
Created orthogonal box = (-0.037 -0.0025 -0.037) to (0.037 0 0.037)
  1 by 1 by 1 MPI processor grid
create_atoms    1 region target
Created 12855 atoms

pair_style      peri/pmb
pair_coeff      * * 1.6863e22 0.0015001 0.0005 0.25
set             group all density 2200
  12855 settings made for density
set             group all volume 1.25e-10
  12855 settings made for volume
velocity        all set 0.0 0.0 0.0 sum no units box
fix             1 all nve
fix             2 all indent 1e16 sphere v_x v_y v_z v_w units box


print "Iteration:  i = $i , j = $j, k = $k, l = $l "
Iteration:  i = 1 , j = 6, k = 1, l = 1 

variable adj_count equal "1000 + v_count"

print " "
 
print " "
 
print "----------------------------------------------------------------"
----------------------------------------------------------------
print "Iteration ${count} of ${countmax}"
Iteration 6 of 1000
print "----------------------------------------------------------------"
----------------------------------------------------------------
print " "
 

# Reset current timestep
reset_timestep 0

# spherical indenter to shatter target

#q is velocity for indent.txt
variable         q equal "1+(0.001*v_l)"

# indenter radius (w) for indent.txt
variable         w equal "0.0020+(0.001*v_k)"

#disk radius(v_r)
variable r equal 0.037

variable        y0 equal 0.00510
variable        vy equal -100
variable        y equal "v_y0 + v_q*step*dt*v_vy"

#Hit the whole disk
#variable        x equal "cos((PI/2)*v_i/v_imax)*((v_i-1)/v_imax*v_r)"
#variable        z equal "sin((PI/2)*v_j/v_jmax)*((v_j-1)/v_jmax*v_r)"

#Hit the disk reduced 5times compare to disk size
variable        x equal "cos((2*PI)*(v_i/v_imax + 0.5*v_i/v_imax))*(v_j/v_jmax + 0.5/v_jmax)*v_r*(0.5)"
variable        z equal "sin((2*PI)*(v_i/v_imax + 0.5*v_i/v_imax))*(v_j/v_jmax + 0.5/v_jmax)*v_r*(0.5)"

compute         1 all damage/atom
timestep        1.0e-7
thermo          100

dump            ${adj_count} all custom 1000 Data/dump_${adj_count}.peri id type x y z c_1
dump            1006 all custom 1000 Data/dump_${adj_count}.peri id type x y z c_1
dump            1006 all custom 1000 Data/dump_1006.peri id type x y z c_1

run             1000
Neighbor list info ...
  2 neighbor list requests
  update every 1 steps, delay 10 steps, check yes
  max neighbors/atom: 2000, page size: 100000
  master list distance cutoff = 0.0025001
  ghost atom cutoff = 0.0025001
  binsize = 0.00125005 -> bins = 60 3 60
Peridynamic bonds:
  total # of bonds = 185180
  bonds/atom = 14.4053
Memory usage per processor = 9.32606 Mbytes
Step Temp E_pair E_mol TotEng Press Volume 
       0            0            0            0            0            0 1.095912e-05 
     100            0            0            0            0            0 1.095912e-05 
     200            0            0            0            0            0 1.095912e-05 
     300 8.4624198e+22    29320.659            0    51847.891 1.3703798e+09 1.095912e-05 
     400 9.4818113e+24      1349238            0    3873326.5 1.5354569e+11 1.095912e-05 
     500 1.5490223e+26    9578659.1            0     50814130 2.5084417e+12 1.095912e-05 
     600 6.7926541e+26     20175979            0 2.0099861e+08 8.7136112e+12 1.3834496e-05 
     700 1.5837108e+27     12225878            0 4.3381477e+08 1.1605119e+13 2.4218559e-05 
     800 2.0503275e+27    5227169.7            0 5.5103091e+08 9.609503e+12 3.7865554e-05 
     900 2.0959288e+27      5105029            0 5.6304798e+08 6.9338582e+12  5.36443e-05 
    1000 2.0967626e+27      3728526            0 5.6189344e+08 5.5346959e+12 6.7232229e-05 
Loop time of 20.3763 on 1 procs for 1000 steps with 12855 atoms

96.7% CPU use with 1 MPI tasks x 1 OpenMP threads

MPI task timing breakdown:
Section |  min time  |  avg time  |  max time  |%varavg| %total
---------------------------------------------------------------
Pair    | 19.123     | 19.123     | 19.123     |   0.0 | 93.85
Neigh   | 0.22763    | 0.22763    | 0.22763    |   0.0 |  1.12
Comm    | 0.005476   | 0.005476   | 0.005476   |   0.0 |  0.03
Output  | 0.0345     | 0.0345     | 0.0345     |   0.0 |  0.17
Modify  | 0.76186    | 0.76186    | 0.76186    |   0.0 |  3.74
Other   |            | 0.2239     |            |       |  1.10

Nlocal:    12855 ave 12855 max 12855 min
Histogram: 1 0 0 0 0 0 0 0 0 0
Nghost:    0 ave 0 max 0 min
Histogram: 1 0 0 0 0 0 0 0 0 0
Neighs:    333443 ave 333443 max 333443 min
Histogram: 1 0 0 0 0 0 0 0 0 0
FullNghs:  674306 ave 674306 max 674306 min
Histogram: 1 0 0 0 0 0 0 0 0 0

Total # of neighbors = 674306
Ave neighs/atom = 52.4548
Neighbor list builds = 17
Dangerous builds = 0

# SAVE INDENTER
print $x file Data/indenter_${adj_count}.txt
print 0.00590600209500624 file Data/indenter_${adj_count}.txt
print 0.00590600209500624 file Data/indenter_1006.txt
0.00590600209500624
print $z append Data/indenter_${adj_count}.txt
print 0.00112663015394667 append Data/indenter_${adj_count}.txt
print 0.00112663015394667 append Data/indenter_1006.txt
0.00112663015394667
print $w append Data/indenter_${adj_count}.txt
print 0.003 append Data/indenter_${adj_count}.txt
print 0.003 append Data/indenter_1006.txt
0.003
print $q append Data/indenter_${adj_count}.txt
print 1.001 append Data/indenter_${adj_count}.txt
print 1.001 append Data/indenter_1006.txt
1.001

next j
next count
jump SELF start_of_loop_4
variable j loop ${jmax}
variable j loop 20
clear
WARNING: OMP_NUM_THREADS environment is not set. (../comm.cpp:90)
  using 1 OpenMP thread(s) per MPI task

# DEFINE INITIAL CONDITIONS
# small Peridynamic cylinder hit by projectile
units		si
boundary        s s s
dimension	3
atom_style      peri
atom_modify	map array
neighbor        0.0010 bin

# small target
lattice         sc 0.001
Lattice spacing in x,y,z = 0.001 0.001 0.001
region          target cylinder y 0.0 0.0 0.037 -0.0025 0.0 units box
create_box      1 target
Created orthogonal box = (-0.037 -0.0025 -0.037) to (0.037 0 0.037)
  1 by 1 by 1 MPI processor grid
create_atoms    1 region target
Created 12855 atoms

pair_style      peri/pmb
pair_coeff      * * 1.6863e22 0.0015001 0.0005 0.25
set             group all density 2200
  12855 settings made for density
set             group all volume 1.25e-10
  12855 settings made for volume
velocity        all set 0.0 0.0 0.0 sum no units box
fix             1 all nve
fix             2 all indent 1e16 sphere v_x v_y v_z v_w units box


print "Iteration:  i = $i , j = $j, k = $k, l = $l "
Iteration:  i = 1 , j = 7, k = 1, l = 1 

variable adj_count equal "1000 + v_count"

print " "
 
print " "
 
print "----------------------------------------------------------------"
----------------------------------------------------------------
print "Iteration ${count} of ${countmax}"
Iteration 7 of 1000
print "----------------------------------------------------------------"
----------------------------------------------------------------
print " "
 

# Reset current timestep
reset_timestep 0

# spherical indenter to shatter target

#q is velocity for indent.txt
variable         q equal "1+(0.001*v_l)"

# indenter radius (w) for indent.txt
variable         w equal "0.0020+(0.001*v_k)"

#disk radius(v_r)
variable r equal 0.037

variable        y0 equal 0.00510
variable        vy equal -100
variable        y equal "v_y0 + v_q*step*dt*v_vy"

#Hit the whole disk
#variable        x equal "cos((PI/2)*v_i/v_imax)*((v_i-1)/v_imax*v_r)"
#variable        z equal "sin((PI/2)*v_j/v_jmax)*((v_j-1)/v_jmax*v_r)"

#Hit the disk reduced 5times compare to disk size
variable        x equal "cos((2*PI)*(v_i/v_imax + 0.5*v_i/v_imax))*(v_j/v_jmax + 0.5/v_jmax)*v_r*(0.5)"
variable        z equal "sin((2*PI)*(v_i/v_imax + 0.5*v_i/v_imax))*(v_j/v_jmax + 0.5/v_jmax)*v_r*(0.5)"

compute         1 all damage/atom
timestep        1.0e-7
thermo          100

dump            ${adj_count} all custom 1000 Data/dump_${adj_count}.peri id type x y z c_1
dump            1007 all custom 1000 Data/dump_${adj_count}.peri id type x y z c_1
dump            1007 all custom 1000 Data/dump_1007.peri id type x y z c_1

run             1000
Neighbor list info ...
  2 neighbor list requests
  update every 1 steps, delay 10 steps, check yes
  max neighbors/atom: 2000, page size: 100000
  master list distance cutoff = 0.0025001
  ghost atom cutoff = 0.0025001
  binsize = 0.00125005 -> bins = 60 3 60
Peridynamic bonds:
  total # of bonds = 185180
  bonds/atom = 14.4053
Memory usage per processor = 9.32606 Mbytes
Step Temp E_pair E_mol TotEng Press Volume 
       0            0            0            0            0            0 1.095912e-05 
     100            0            0            0            0            0 1.095912e-05 
     200            0            0            0            0            0 1.095912e-05 
     300 8.3665808e+22    29462.918            0    51735.025 1.3548599e+09 1.095912e-05 
     400 9.3483114e+24    1455838.2            0    3944388.6 1.5138383e+11 1.095912e-05 
     500 1.4838839e+26    9781830.7            0     49283297 2.4029585e+12 1.095912e-05 
     600 6.3556029e+26     18997885            0 1.8818607e+08 8.0236941e+12 1.4057381e-05 
     700 1.5566796e+27    8100867.8            0 4.2249396e+08 1.0706516e+13 2.5803171e-05 
     800 2.0495616e+27    7453394.6            0 5.5305326e+08 9.7165253e+12 3.7434498e-05 
     900 2.1084483e+27    3974718.6            0 5.6525042e+08 7.2750335e+12 5.1433962e-05 
    1000 2.103428e+27    3704623.2            0 5.6364389e+08 5.4293179e+12 6.8755017e-05 
Loop time of 20.3916 on 1 procs for 1000 steps with 12855 atoms

95.9% CPU use with 1 MPI tasks x 1 OpenMP threads

MPI task timing breakdown:
Section |  min time  |  avg time  |  max time  |%varavg| %total
---------------------------------------------------------------
Pair    | 19.176     | 19.176     | 19.176     |   0.0 | 94.04
Neigh   | 0.21175    | 0.21175    | 0.21175    |   0.0 |  1.04
Comm    | 0.0089397  | 0.0089397  | 0.0089397  |   0.0 |  0.04
Output  | 0.03316    | 0.03316    | 0.03316    |   0.0 |  0.16
Modify  | 0.75166    | 0.75166    | 0.75166    |   0.0 |  3.69
Other   |            | 0.2103     |            |       |  1.03

Nlocal:    12855 ave 12855 max 12855 min
Histogram: 1 0 0 0 0 0 0 0 0 0
Nghost:    0 ave 0 max 0 min
Histogram: 1 0 0 0 0 0 0 0 0 0
Neighs:    333436 ave 333436 max 333436 min
Histogram: 1 0 0 0 0 0 0 0 0 0
FullNghs:  674306 ave 674306 max 674306 min
Histogram: 1 0 0 0 0 0 0 0 0 0

Total # of neighbors = 674306
Ave neighs/atom = 52.4548
Neighbor list builds = 16
Dangerous builds = 0

# SAVE INDENTER
print $x file Data/indenter_${adj_count}.txt
print 0.00681461780193028 file Data/indenter_${adj_count}.txt
print 0.00681461780193028 file Data/indenter_1007.txt
0.00681461780193028
print $z append Data/indenter_${adj_count}.txt
print 0.00129995786993846 append Data/indenter_${adj_count}.txt
print 0.00129995786993846 append Data/indenter_1007.txt
0.00129995786993846
print $w append Data/indenter_${adj_count}.txt
print 0.003 append Data/indenter_${adj_count}.txt
print 0.003 append Data/indenter_1007.txt
0.003
print $q append Data/indenter_${adj_count}.txt
print 1.001 append Data/indenter_${adj_count}.txt
print 1.001 append Data/indenter_1007.txt
1.001

next j
next count
jump SELF start_of_loop_4
variable j loop ${jmax}
variable j loop 20
clear
WARNING: OMP_NUM_THREADS environment is not set. (../comm.cpp:90)
  using 1 OpenMP thread(s) per MPI task

# DEFINE INITIAL CONDITIONS
# small Peridynamic cylinder hit by projectile
units		si
boundary        s s s
dimension	3
atom_style      peri
atom_modify	map array
neighbor        0.0010 bin

# small target
lattice         sc 0.001
Lattice spacing in x,y,z = 0.001 0.001 0.001
region          target cylinder y 0.0 0.0 0.037 -0.0025 0.0 units box
create_box      1 target
Created orthogonal box = (-0.037 -0.0025 -0.037) to (0.037 0 0.037)
  1 by 1 by 1 MPI processor grid
create_atoms    1 region target
Created 12855 atoms

pair_style      peri/pmb
pair_coeff      * * 1.6863e22 0.0015001 0.0005 0.25
set             group all density 2200
  12855 settings made for density
set             group all volume 1.25e-10
  12855 settings made for volume
velocity        all set 0.0 0.0 0.0 sum no units box
fix             1 all nve
fix             2 all indent 1e16 sphere v_x v_y v_z v_w units box


print "Iteration:  i = $i , j = $j, k = $k, l = $l "
Iteration:  i = 1 , j = 8, k = 1, l = 1 

variable adj_count equal "1000 + v_count"

print " "
 
print " "
 
print "----------------------------------------------------------------"
----------------------------------------------------------------
print "Iteration ${count} of ${countmax}"
Iteration 8 of 1000
print "----------------------------------------------------------------"
----------------------------------------------------------------
print " "
 

# Reset current timestep
reset_timestep 0

# spherical indenter to shatter target

#q is velocity for indent.txt
variable         q equal "1+(0.001*v_l)"

# indenter radius (w) for indent.txt
variable         w equal "0.0020+(0.001*v_k)"

#disk radius(v_r)
variable r equal 0.037

variable        y0 equal 0.00510
variable        vy equal -100
variable        y equal "v_y0 + v_q*step*dt*v_vy"

#Hit the whole disk
#variable        x equal "cos((PI/2)*v_i/v_imax)*((v_i-1)/v_imax*v_r)"
#variable        z equal "sin((PI/2)*v_j/v_jmax)*((v_j-1)/v_jmax*v_r)"

#Hit the disk reduced 5times compare to disk size
variable        x equal "cos((2*PI)*(v_i/v_imax + 0.5*v_i/v_imax))*(v_j/v_jmax + 0.5/v_jmax)*v_r*(0.5)"
variable        z equal "sin((2*PI)*(v_i/v_imax + 0.5*v_i/v_imax))*(v_j/v_jmax + 0.5/v_jmax)*v_r*(0.5)"

compute         1 all damage/atom
timestep        1.0e-7
thermo          100

dump            ${adj_count} all custom 1000 Data/dump_${adj_count}.peri id type x y z c_1
dump            1008 all custom 1000 Data/dump_${adj_count}.peri id type x y z c_1
dump            1008 all custom 1000 Data/dump_1008.peri id type x y z c_1

run             1000
Neighbor list info ...
  2 neighbor list requests
  update every 1 steps, delay 10 steps, check yes
  max neighbors/atom: 2000, page size: 100000
  master list distance cutoff = 0.0025001
  ghost atom cutoff = 0.0025001
  binsize = 0.00125005 -> bins = 60 3 60
Peridynamic bonds:
  total # of bonds = 185180
  bonds/atom = 14.4053
Memory usage per processor = 9.32606 Mbytes
Step Temp E_pair E_mol TotEng Press Volume 
       0            0            0            0            0            0 1.095912e-05 
     100            0            0            0            0            0 1.095912e-05 
     200            0            0            0            0            0 1.095912e-05 
     300 8.2942404e+22    29541.634            0    51621.168 1.3431453e+09 1.095912e-05 
     400 9.2918388e+24    1501664.6            0    3975181.9 1.5046933e+11 1.095912e-05 
     500 1.4747299e+26    8900170.4            0     48157954 2.3881347e+12 1.095912e-05 
     600 6.2568138e+26     15483388            0 1.8204178e+08 8.0424146e+12 1.3806665e-05 
     700 1.5774846e+27    8304494.8            0 4.2823596e+08 1.0764374e+13 2.6007487e-05 
     800 2.0982351e+27      4602324            0 5.6315924e+08 9.830231e+12 3.7880216e-05 
     900 2.1614501e+27    3468083.4            0 5.7885302e+08 7.3395828e+12 5.2263183e-05 
    1000 2.1590773e+27    3435283.4            0 5.7818857e+08 5.7185355e+12 6.7004718e-05 
Loop time of 20.7798 on 1 procs for 1000 steps with 12855 atoms

94.8% CPU use with 1 MPI tasks x 1 OpenMP threads

MPI task timing breakdown:
Section |  min time  |  avg time  |  max time  |%varavg| %total
---------------------------------------------------------------
Pair    | 19.457     | 19.457     | 19.457     |   0.0 | 93.64
Neigh   | 0.2074     | 0.2074     | 0.2074     |   0.0 |  1.00
Comm    | 0.0084252  | 0.0084252  | 0.0084252  |   0.0 |  0.04
Output  | 0.092856   | 0.092856   | 0.092856   |   0.0 |  0.45
Modify  | 0.78927    | 0.78927    | 0.78927    |   0.0 |  3.80
Other   |            | 0.2245     |            |       |  1.08

Nlocal:    12855 ave 12855 max 12855 min
Histogram: 1 0 0 0 0 0 0 0 0 0
Nghost:    0 ave 0 max 0 min
Histogram: 1 0 0 0 0 0 0 0 0 0
Neighs:    333459 ave 333459 max 333459 min
Histogram: 1 0 0 0 0 0 0 0 0 0
FullNghs:  674306 ave 674306 max 674306 min
Histogram: 1 0 0 0 0 0 0 0 0 0

Total # of neighbors = 674306
Ave neighs/atom = 52.4548
Neighbor list builds = 15
Dangerous builds = 0

# SAVE INDENTER
print $x file Data/indenter_${adj_count}.txt
print 0.00772323350885431 file Data/indenter_${adj_count}.txt
print 0.00772323350885431 file Data/indenter_1008.txt
0.00772323350885431
print $z append Data/indenter_${adj_count}.txt
print 0.00147328558593026 append Data/indenter_${adj_count}.txt
print 0.00147328558593026 append Data/indenter_1008.txt
0.00147328558593026
print $w append Data/indenter_${adj_count}.txt
print 0.003 append Data/indenter_${adj_count}.txt
print 0.003 append Data/indenter_1008.txt
0.003
print $q append Data/indenter_${adj_count}.txt
print 1.001 append Data/indenter_${adj_count}.txt
print 1.001 append Data/indenter_1008.txt
1.001

next j
next count
jump SELF start_of_loop_4
variable j loop ${jmax}
variable j loop 20
clear
WARNING: OMP_NUM_THREADS environment is not set. (../comm.cpp:90)
  using 1 OpenMP thread(s) per MPI task

# DEFINE INITIAL CONDITIONS
# small Peridynamic cylinder hit by projectile
units		si
boundary        s s s
dimension	3
atom_style      peri
atom_modify	map array
neighbor        0.0010 bin

# small target
lattice         sc 0.001
Lattice spacing in x,y,z = 0.001 0.001 0.001
region          target cylinder y 0.0 0.0 0.037 -0.0025 0.0 units box
create_box      1 target
Created orthogonal box = (-0.037 -0.0025 -0.037) to (0.037 0 0.037)
  1 by 1 by 1 MPI processor grid
create_atoms    1 region target
Created 12855 atoms

pair_style      peri/pmb
pair_coeff      * * 1.6863e22 0.0015001 0.0005 0.25
set             group all density 2200
  12855 settings made for density
set             group all volume 1.25e-10
  12855 settings made for volume
velocity        all set 0.0 0.0 0.0 sum no units box
fix             1 all nve
fix             2 all indent 1e16 sphere v_x v_y v_z v_w units box


print "Iteration:  i = $i , j = $j, k = $k, l = $l "
Iteration:  i = 1 , j = 9, k = 1, l = 1 

variable adj_count equal "1000 + v_count"

print " "
 
print " "
 
print "----------------------------------------------------------------"
----------------------------------------------------------------
print "Iteration ${count} of ${countmax}"
Iteration 9 of 1000
print "----------------------------------------------------------------"
----------------------------------------------------------------
print " "
 

# Reset current timestep
reset_timestep 0

# spherical indenter to shatter target

#q is velocity for indent.txt
variable         q equal "1+(0.001*v_l)"

# indenter radius (w) for indent.txt
variable         w equal "0.0020+(0.001*v_k)"

#disk radius(v_r)
variable r equal 0.037

variable        y0 equal 0.00510
variable        vy equal -100
variable        y equal "v_y0 + v_q*step*dt*v_vy"

#Hit the whole disk
#variable        x equal "cos((PI/2)*v_i/v_imax)*((v_i-1)/v_imax*v_r)"
#variable        z equal "sin((PI/2)*v_j/v_jmax)*((v_j-1)/v_jmax*v_r)"

#Hit the disk reduced 5times compare to disk size
variable        x equal "cos((2*PI)*(v_i/v_imax + 0.5*v_i/v_imax))*(v_j/v_jmax + 0.5/v_jmax)*v_r*(0.5)"
variable        z equal "sin((2*PI)*(v_i/v_imax + 0.5*v_i/v_imax))*(v_j/v_jmax + 0.5/v_jmax)*v_r*(0.5)"

compute         1 all damage/atom
timestep        1.0e-7
thermo          100

dump            ${adj_count} all custom 1000 Data/dump_${adj_count}.peri id type x y z c_1
dump            1009 all custom 1000 Data/dump_${adj_count}.peri id type x y z c_1
dump            1009 all custom 1000 Data/dump_1009.peri id type x y z c_1

run             1000
Neighbor list info ...
  2 neighbor list requests
  update every 1 steps, delay 10 steps, check yes
  max neighbors/atom: 2000, page size: 100000
  master list distance cutoff = 0.0025001
  ghost atom cutoff = 0.0025001
  binsize = 0.00125005 -> bins = 60 3 60
Peridynamic bonds:
  total # of bonds = 185180
  bonds/atom = 14.4053
Memory usage per processor = 9.32606 Mbytes
Step Temp E_pair E_mol TotEng Press Volume 
       0            0            0            0            0            0 1.095912e-05 
     100            0            0            0            0            0 1.095912e-05 
     200            0            0            0            0            0 1.095912e-05 
     300 8.2904462e+22    29539.958            0    51609.392 1.3425309e+09 1.095912e-05 
     400 9.3284391e+24      1523302            0    4006562.4 1.5106203e+11 1.095912e-05 
     500 1.4558689e+26    9256456.7            0     48012154 2.3575918e+12 1.095912e-05 
     600 6.1562547e+26     15735546            0 1.7961702e+08 8.0145525e+12 1.3631992e-05 
     700 1.5323586e+27    6819551.5            0 4.1473833e+08 1.2388293e+13 2.1951841e-05 
     800 2.002392e+27    6741051.5            0 5.3978422e+08 9.4759306e+12 3.7501553e-05 
     900 2.0629217e+27    6366464.2            0 5.5552282e+08 7.0580587e+12 5.1870387e-05 
    1000 2.0671577e+27    3536748.8            0 5.5382074e+08 5.5497316e+12 6.6103377e-05 
Loop time of 20.1495 on 1 procs for 1000 steps with 12855 atoms

97.3% CPU use with 1 MPI tasks x 1 OpenMP threads

MPI task timing breakdown:
Section |  min time  |  avg time  |  max time  |%varavg| %total
---------------------------------------------------------------
Pair    | 18.953     | 18.953     | 18.953     |   0.0 | 94.06
Neigh   | 0.20715    | 0.20715    | 0.20715    |   0.0 |  1.03
Comm    | 0.0052128  | 0.0052128  | 0.0052128  |   0.0 |  0.03
Output  | 0.033166   | 0.033166   | 0.033166   |   0.0 |  0.16
Modify  | 0.74334    | 0.74334    | 0.74334    |   0.0 |  3.69
Other   |            | 0.2075     |            |       |  1.03

Nlocal:    12855 ave 12855 max 12855 min
Histogram: 1 0 0 0 0 0 0 0 0 0
Nghost:    0 ave 0 max 0 min
Histogram: 1 0 0 0 0 0 0 0 0 0
Neighs:    333363 ave 333363 max 333363 min
Histogram: 1 0 0 0 0 0 0 0 0 0
FullNghs:  674306 ave 674306 max 674306 min
Histogram: 1 0 0 0 0 0 0 0 0 0

Total # of neighbors = 674306
Ave neighs/atom = 52.4548
Neighbor list builds = 15
Dangerous builds = 0

# SAVE INDENTER
print $x file Data/indenter_${adj_count}.txt
print 0.00863184921577835 file Data/indenter_${adj_count}.txt
print 0.00863184921577835 file Data/indenter_1009.txt
0.00863184921577835
print $z append Data/indenter_${adj_count}.txt
print 0.00164661330192205 append Data/indenter_${adj_count}.txt
print 0.00164661330192205 append Data/indenter_1009.txt
0.00164661330192205
print $w append Data/indenter_${adj_count}.txt
print 0.003 append Data/indenter_${adj_count}.txt
print 0.003 append Data/indenter_1009.txt
0.003
print $q append Data/indenter_${adj_count}.txt
print 1.001 append Data/indenter_${adj_count}.txt
print 1.001 append Data/indenter_1009.txt
1.001

next j
next count
jump SELF start_of_loop_4
variable j loop ${jmax}
variable j loop 20
clear
WARNING: OMP_NUM_THREADS environment is not set. (../comm.cpp:90)
  using 1 OpenMP thread(s) per MPI task

# DEFINE INITIAL CONDITIONS
# small Peridynamic cylinder hit by projectile
units		si
boundary        s s s
dimension	3
atom_style      peri
atom_modify	map array
neighbor        0.0010 bin

# small target
lattice         sc 0.001
Lattice spacing in x,y,z = 0.001 0.001 0.001
region          target cylinder y 0.0 0.0 0.037 -0.0025 0.0 units box
create_box      1 target
Created orthogonal box = (-0.037 -0.0025 -0.037) to (0.037 0 0.037)
  1 by 1 by 1 MPI processor grid
create_atoms    1 region target
Created 12855 atoms

pair_style      peri/pmb
pair_coeff      * * 1.6863e22 0.0015001 0.0005 0.25
set             group all density 2200
  12855 settings made for density
set             group all volume 1.25e-10
  12855 settings made for volume
velocity        all set 0.0 0.0 0.0 sum no units box
fix             1 all nve
fix             2 all indent 1e16 sphere v_x v_y v_z v_w units box


print "Iteration:  i = $i , j = $j, k = $k, l = $l "
Iteration:  i = 1 , j = 10, k = 1, l = 1 

variable adj_count equal "1000 + v_count"

print " "
 
print " "
 
print "----------------------------------------------------------------"
----------------------------------------------------------------
print "Iteration ${count} of ${countmax}"
Iteration 10 of 1000
print "----------------------------------------------------------------"
----------------------------------------------------------------
print " "
 

# Reset current timestep
reset_timestep 0

# spherical indenter to shatter target

#q is velocity for indent.txt
variable         q equal "1+(0.001*v_l)"

# indenter radius (w) for indent.txt
variable         w equal "0.0020+(0.001*v_k)"

#disk radius(v_r)
variable r equal 0.037

variable        y0 equal 0.00510
variable        vy equal -100
variable        y equal "v_y0 + v_q*step*dt*v_vy"

#Hit the whole disk
#variable        x equal "cos((PI/2)*v_i/v_imax)*((v_i-1)/v_imax*v_r)"
#variable        z equal "sin((PI/2)*v_j/v_jmax)*((v_j-1)/v_jmax*v_r)"

#Hit the disk reduced 5times compare to disk size
variable        x equal "cos((2*PI)*(v_i/v_imax + 0.5*v_i/v_imax))*(v_j/v_jmax + 0.5/v_jmax)*v_r*(0.5)"
variable        z equal "sin((2*PI)*(v_i/v_imax + 0.5*v_i/v_imax))*(v_j/v_jmax + 0.5/v_jmax)*v_r*(0.5)"

compute         1 all damage/atom
timestep        1.0e-7
thermo          100

dump            ${adj_count} all custom 1000 Data/dump_${adj_count}.peri id type x y z c_1
dump            1010 all custom 1000 Data/dump_${adj_count}.peri id type x y z c_1
dump            1010 all custom 1000 Data/dump_1010.peri id type x y z c_1

run             1000
Neighbor list info ...
  2 neighbor list requests
  update every 1 steps, delay 10 steps, check yes
  max neighbors/atom: 2000, page size: 100000
  master list distance cutoff = 0.0025001
  ghost atom cutoff = 0.0025001
  binsize = 0.00125005 -> bins = 60 3 60
Peridynamic bonds:
  total # of bonds = 185180
  bonds/atom = 14.4053
Memory usage per processor = 9.32606 Mbytes
Step Temp E_pair E_mol TotEng Press Volume 
       0            0            0            0            0            0 1.095912e-05 
     100            0            0            0            0            0 1.095912e-05 
     200            0            0            0            0            0 1.095912e-05 
     300 8.3251933e+22    29522.189            0    51684.121 1.3481577e+09 1.095912e-05 
     400 9.3302307e+24      1477266            0    3961003.3 1.5109104e+11 1.095912e-05 
     500 1.4897723e+26    9783548.7            0     49441764 2.4124938e+12 1.095912e-05 
     600 6.5875275e+26     16913529            0 1.9227562e+08 8.1957552e+12 1.4264465e-05 
     700 1.5872294e+27      9547170            0 4.3207271e+08 1.2620325e+13 2.2319845e-05 
     800 2.083048e+27      6787795            0 5.6130183e+08 1.0097441e+13 3.6610864e-05 
     900  2.13814e+27    5308663.3            0 5.7448839e+08 7.3202748e+12 5.1835916e-05 
    1000 2.1399611e+27    3476819.1            0 5.7314133e+08 5.9699423e+12 6.3614743e-05 
Loop time of 20.1783 on 1 procs for 1000 steps with 12855 atoms

97.0% CPU use with 1 MPI tasks x 1 OpenMP threads

MPI task timing breakdown:
Section |  min time  |  avg time  |  max time  |%varavg| %total
---------------------------------------------------------------
Pair    | 18.97      | 18.97      | 18.97      |   0.0 | 94.01
Neigh   | 0.18207    | 0.18207    | 0.18207    |   0.0 |  0.90
Comm    | 0.0048881  | 0.0048881  | 0.0048881  |   0.0 |  0.02
Output  | 0.035229   | 0.035229   | 0.035229   |   0.0 |  0.17
Modify  | 0.76388    | 0.76388    | 0.76388    |   0.0 |  3.79
Other   |            | 0.2222     |            |       |  1.10

Nlocal:    12855 ave 12855 max 12855 min
Histogram: 1 0 0 0 0 0 0 0 0 0
Nghost:    0 ave 0 max 0 min
Histogram: 1 0 0 0 0 0 0 0 0 0
Neighs:    333225 ave 333225 max 333225 min
Histogram: 1 0 0 0 0 0 0 0 0 0
FullNghs:  674306 ave 674306 max 674306 min
Histogram: 1 0 0 0 0 0 0 0 0 0

Total # of neighbors = 674306
Ave neighs/atom = 52.4548
Neighbor list builds = 14
Dangerous builds = 0

# SAVE INDENTER
print $x file Data/indenter_${adj_count}.txt
print 0.00954046492270239 file Data/indenter_${adj_count}.txt
print 0.00954046492270239 file Data/indenter_1010.txt
0.00954046492270239
print $z append Data/indenter_${adj_count}.txt
print 0.00181994101791385 append Data/indenter_${adj_count}.txt
print 0.00181994101791385 append Data/indenter_1010.txt
0.00181994101791385
print $w append Data/indenter_${adj_count}.txt
print 0.003 append Data/indenter_${adj_count}.txt
print 0.003 append Data/indenter_1010.txt
0.003
print $q append Data/indenter_${adj_count}.txt
print 1.001 append Data/indenter_${adj_count}.txt
print 1.001 append Data/indenter_1010.txt
1.001

next j
next count
jump SELF start_of_loop_4
variable j loop ${jmax}
variable j loop 20
clear
WARNING: OMP_NUM_THREADS environment is not set. (../comm.cpp:90)
  using 1 OpenMP thread(s) per MPI task

# DEFINE INITIAL CONDITIONS
# small Peridynamic cylinder hit by projectile
units		si
boundary        s s s
dimension	3
atom_style      peri
atom_modify	map array
neighbor        0.0010 bin

# small target
lattice         sc 0.001
Lattice spacing in x,y,z = 0.001 0.001 0.001
region          target cylinder y 0.0 0.0 0.037 -0.0025 0.0 units box
create_box      1 target
Created orthogonal box = (-0.037 -0.0025 -0.037) to (0.037 0 0.037)
  1 by 1 by 1 MPI processor grid
create_atoms    1 region target
Created 12855 atoms

pair_style      peri/pmb
pair_coeff      * * 1.6863e22 0.0015001 0.0005 0.25
set             group all density 2200
  12855 settings made for density
set             group all volume 1.25e-10
  12855 settings made for volume
velocity        all set 0.0 0.0 0.0 sum no units box
fix             1 all nve
fix             2 all indent 1e16 sphere v_x v_y v_z v_w units box


print "Iteration:  i = $i , j = $j, k = $k, l = $l "
Iteration:  i = 1 , j = 11, k = 1, l = 1 

variable adj_count equal "1000 + v_count"

print " "
 
print " "
 
print "----------------------------------------------------------------"
----------------------------------------------------------------
print "Iteration ${count} of ${countmax}"
Iteration 11 of 1000
print "----------------------------------------------------------------"
----------------------------------------------------------------
print " "
 

# Reset current timestep
reset_timestep 0

# spherical indenter to shatter target

#q is velocity for indent.txt
variable         q equal "1+(0.001*v_l)"

# indenter radius (w) for indent.txt
variable         w equal "0.0020+(0.001*v_k)"

#disk radius(v_r)
variable r equal 0.037

variable        y0 equal 0.00510
variable        vy equal -100
variable        y equal "v_y0 + v_q*step*dt*v_vy"

#Hit the whole disk
#variable        x equal "cos((PI/2)*v_i/v_imax)*((v_i-1)/v_imax*v_r)"
#variable        z equal "sin((PI/2)*v_j/v_jmax)*((v_j-1)/v_jmax*v_r)"

#Hit the disk reduced 5times compare to disk size
variable        x equal "cos((2*PI)*(v_i/v_imax + 0.5*v_i/v_imax))*(v_j/v_jmax + 0.5/v_jmax)*v_r*(0.5)"
variable        z equal "sin((2*PI)*(v_i/v_imax + 0.5*v_i/v_imax))*(v_j/v_jmax + 0.5/v_jmax)*v_r*(0.5)"

compute         1 all damage/atom
timestep        1.0e-7
thermo          100

dump            ${adj_count} all custom 1000 Data/dump_${adj_count}.peri id type x y z c_1
dump            1011 all custom 1000 Data/dump_${adj_count}.peri id type x y z c_1
dump            1011 all custom 1000 Data/dump_1011.peri id type x y z c_1

run             1000
Neighbor list info ...
  2 neighbor list requests
  update every 1 steps, delay 10 steps, check yes
  max neighbors/atom: 2000, page size: 100000
  master list distance cutoff = 0.0025001
  ghost atom cutoff = 0.0025001
  binsize = 0.00125005 -> bins = 60 3 60
Peridynamic bonds:
  total # of bonds = 185180
  bonds/atom = 14.4053
Memory usage per processor = 9.32606 Mbytes
Step Temp E_pair E_mol TotEng Press Volume 
       0            0            0            0            0            0 1.095912e-05 
     100            0            0            0            0            0 1.095912e-05 
     200            0            0            0            0            0 1.095912e-05 
     300 8.3590672e+22    29505.096            0    51757.201 1.3536432e+09 1.095912e-05 
     400 9.3186188e+24    1424503.8            0      3905150  1.50903e+11 1.095912e-05 
     500 1.5017717e+26    9670953.1            0     49648596 2.4319253e+12 1.095912e-05 
     600 6.6185362e+26     15935582            0 1.9212314e+08  8.27605e+12 1.4192564e-05 
     700 1.5857362e+27     11540315            0 4.3366837e+08 1.1164512e+13 2.5206538e-05 
     800 2.0737676e+27    5849890.5            0 5.5789346e+08 1.0298055e+13 3.5737723e-05 
     900 2.113322e+27    5477355.3            0 5.6805044e+08 7.2758136e+12 5.1547325e-05 
    1000 2.1126796e+27    3830650.7            0 5.6623274e+08 5.5552623e+12 6.7491812e-05 
Loop time of 19.8076 on 1 procs for 1000 steps with 12855 atoms

98.8% CPU use with 1 MPI tasks x 1 OpenMP threads

MPI task timing breakdown:
Section |  min time  |  avg time  |  max time  |%varavg| %total
---------------------------------------------------------------
Pair    | 18.639     | 18.639     | 18.639     |   0.0 | 94.10
Neigh   | 0.19797    | 0.19797    | 0.19797    |   0.0 |  1.00
Comm    | 0.0096295  | 0.0096295  | 0.0096295  |   0.0 |  0.05
Output  | 0.03687    | 0.03687    | 0.03687    |   0.0 |  0.19
Modify  | 0.72146    | 0.72146    | 0.72146    |   0.0 |  3.64
Other   |            | 0.2028     |            |       |  1.02

Nlocal:    12855 ave 12855 max 12855 min
Histogram: 1 0 0 0 0 0 0 0 0 0
Nghost:    0 ave 0 max 0 min
Histogram: 1 0 0 0 0 0 0 0 0 0
Neighs:    333159 ave 333159 max 333159 min
Histogram: 1 0 0 0 0 0 0 0 0 0
FullNghs:  674306 ave 674306 max 674306 min
Histogram: 1 0 0 0 0 0 0 0 0 0

Total # of neighbors = 674306
Ave neighs/atom = 52.4548
Neighbor list builds = 15
Dangerous builds = 0

# SAVE INDENTER
print $x file Data/indenter_${adj_count}.txt
print 0.0104490806296264 file Data/indenter_${adj_count}.txt
print 0.0104490806296264 file Data/indenter_1011.txt
0.0104490806296264
print $z append Data/indenter_${adj_count}.txt
print 0.00199326873390565 append Data/indenter_${adj_count}.txt
print 0.00199326873390565 append Data/indenter_1011.txt
0.00199326873390565
print $w append Data/indenter_${adj_count}.txt
print 0.003 append Data/indenter_${adj_count}.txt
print 0.003 append Data/indenter_1011.txt
0.003
print $q append Data/indenter_${adj_count}.txt
print 1.001 append Data/indenter_${adj_count}.txt
print 1.001 append Data/indenter_1011.txt
1.001

next j
next count
jump SELF start_of_loop_4
variable j loop ${jmax}
variable j loop 20
clear
WARNING: OMP_NUM_THREADS environment is not set. (../comm.cpp:90)
  using 1 OpenMP thread(s) per MPI task

# DEFINE INITIAL CONDITIONS
# small Peridynamic cylinder hit by projectile
units		si
boundary        s s s
dimension	3
atom_style      peri
atom_modify	map array
neighbor        0.0010 bin

# small target
lattice         sc 0.001
Lattice spacing in x,y,z = 0.001 0.001 0.001
region          target cylinder y 0.0 0.0 0.037 -0.0025 0.0 units box
create_box      1 target
Created orthogonal box = (-0.037 -0.0025 -0.037) to (0.037 0 0.037)
  1 by 1 by 1 MPI processor grid
create_atoms    1 region target
Created 12855 atoms

pair_style      peri/pmb
pair_coeff      * * 1.6863e22 0.0015001 0.0005 0.25
set             group all density 2200
  12855 settings made for density
set             group all volume 1.25e-10
  12855 settings made for volume
velocity        all set 0.0 0.0 0.0 sum no units box
fix             1 all nve
fix             2 all indent 1e16 sphere v_x v_y v_z v_w units box


print "Iteration:  i = $i , j = $j, k = $k, l = $l "
Iteration:  i = 1 , j = 12, k = 1, l = 1 

variable adj_count equal "1000 + v_count"

print " "
 
print " "
 
print "----------------------------------------------------------------"
----------------------------------------------------------------
print "Iteration ${count} of ${countmax}"
Iteration 12 of 1000
print "----------------------------------------------------------------"
----------------------------------------------------------------
print " "
 

# Reset current timestep
reset_timestep 0

# spherical indenter to shatter target

#q is velocity for indent.txt
variable         q equal "1+(0.001*v_l)"

# indenter radius (w) for indent.txt
variable         w equal "0.0020+(0.001*v_k)"

#disk radius(v_r)
variable r equal 0.037

variable        y0 equal 0.00510
variable        vy equal -100
variable        y equal "v_y0 + v_q*step*dt*v_vy"

#Hit the whole disk
#variable        x equal "cos((PI/2)*v_i/v_imax)*((v_i-1)/v_imax*v_r)"
#variable        z equal "sin((PI/2)*v_j/v_jmax)*((v_j-1)/v_jmax*v_r)"

#Hit the disk reduced 5times compare to disk size
variable        x equal "cos((2*PI)*(v_i/v_imax + 0.5*v_i/v_imax))*(v_j/v_jmax + 0.5/v_jmax)*v_r*(0.5)"
variable        z equal "sin((2*PI)*(v_i/v_imax + 0.5*v_i/v_imax))*(v_j/v_jmax + 0.5/v_jmax)*v_r*(0.5)"

compute         1 all damage/atom
timestep        1.0e-7
thermo          100

dump            ${adj_count} all custom 1000 Data/dump_${adj_count}.peri id type x y z c_1
dump            1012 all custom 1000 Data/dump_${adj_count}.peri id type x y z c_1
dump            1012 all custom 1000 Data/dump_1012.peri id type x y z c_1

run             1000
Neighbor list info ...
  2 neighbor list requests
  update every 1 steps, delay 10 steps, check yes
  max neighbors/atom: 2000, page size: 100000
  master list distance cutoff = 0.0025001
  ghost atom cutoff = 0.0025001
  binsize = 0.00125005 -> bins = 60 3 60
Peridynamic bonds:
  total # of bonds = 185180
  bonds/atom = 14.4053
Memory usage per processor = 9.32606 Mbytes
Step Temp E_pair E_mol TotEng Press Volume 
       0            0            0            0            0            0 1.095912e-05 
     100            0            0            0            0            0 1.095912e-05 
     200            0            0            0            0            0 1.095912e-05 
     300 8.351786e+22    29487.751            0    51720.473 1.3524641e+09 1.095912e-05 
     400 9.3903847e+24    1452021.5            0      3951772 1.5206516e+11 1.095912e-05 
     500 1.495546e+26    9595818.6            0     49407734 2.4218437e+12 1.095912e-05 
     600 6.3569717e+26     19107672            0 1.8833229e+08 7.9278817e+12 1.4230335e-05 
     700 1.5489345e+27    9871326.1            0 4.2220265e+08 1.082942e+13 2.5383405e-05 
     800 2.0550845e+27    4503804.7            0 5.5157389e+08 9.8802999e+12 3.6913191e-05 
     900 2.0991317e+27    4663353.6            0 5.6345893e+08 7.2298443e+12 5.152675e-05 
    1000 2.0977155e+27      3621072            0 5.6203966e+08 5.615271e+12 6.6297611e-05 
Loop time of 19.7766 on 1 procs for 1000 steps with 12855 atoms

98.7% CPU use with 1 MPI tasks x 1 OpenMP threads

MPI task timing breakdown:
Section |  min time  |  avg time  |  max time  |%varavg| %total
---------------------------------------------------------------
Pair    | 18.601     | 18.601     | 18.601     |   0.0 | 94.05
Neigh   | 0.19703    | 0.19703    | 0.19703    |   0.0 |  1.00
Comm    | 0.005048   | 0.005048   | 0.005048   |   0.0 |  0.03
Output  | 0.033476   | 0.033476   | 0.033476   |   0.0 |  0.17
Modify  | 0.72455    | 0.72455    | 0.72455    |   0.0 |  3.66
Other   |            | 0.2158     |            |       |  1.09

Nlocal:    12855 ave 12855 max 12855 min
Histogram: 1 0 0 0 0 0 0 0 0 0
Nghost:    0 ave 0 max 0 min
Histogram: 1 0 0 0 0 0 0 0 0 0
Neighs:    333427 ave 333427 max 333427 min
Histogram: 1 0 0 0 0 0 0 0 0 0
FullNghs:  674306 ave 674306 max 674306 min
Histogram: 1 0 0 0 0 0 0 0 0 0

Total # of neighbors = 674306
Ave neighs/atom = 52.4548
Neighbor list builds = 15
Dangerous builds = 0

# SAVE INDENTER
print $x file Data/indenter_${adj_count}.txt
print 0.0113576963365505 file Data/indenter_${adj_count}.txt
print 0.0113576963365505 file Data/indenter_1012.txt
0.0113576963365505
print $z append Data/indenter_${adj_count}.txt
print 0.00216659644989744 append Data/indenter_${adj_count}.txt
print 0.00216659644989744 append Data/indenter_1012.txt
0.00216659644989744
print $w append Data/indenter_${adj_count}.txt
print 0.003 append Data/indenter_${adj_count}.txt
print 0.003 append Data/indenter_1012.txt
0.003
print $q append Data/indenter_${adj_count}.txt
print 1.001 append Data/indenter_${adj_count}.txt
print 1.001 append Data/indenter_1012.txt
1.001

next j
next count
jump SELF start_of_loop_4
variable j loop ${jmax}
variable j loop 20
clear
WARNING: OMP_NUM_THREADS environment is not set. (../comm.cpp:90)
  using 1 OpenMP thread(s) per MPI task

# DEFINE INITIAL CONDITIONS
# small Peridynamic cylinder hit by projectile
units		si
boundary        s s s
dimension	3
atom_style      peri
atom_modify	map array
neighbor        0.0010 bin

# small target
lattice         sc 0.001
Lattice spacing in x,y,z = 0.001 0.001 0.001
region          target cylinder y 0.0 0.0 0.037 -0.0025 0.0 units box
create_box      1 target
Created orthogonal box = (-0.037 -0.0025 -0.037) to (0.037 0 0.037)
  1 by 1 by 1 MPI processor grid
create_atoms    1 region target
Created 12855 atoms

pair_style      peri/pmb
pair_coeff      * * 1.6863e22 0.0015001 0.0005 0.25
set             group all density 2200
  12855 settings made for density
set             group all volume 1.25e-10
  12855 settings made for volume
velocity        all set 0.0 0.0 0.0 sum no units box
fix             1 all nve
fix             2 all indent 1e16 sphere v_x v_y v_z v_w units box


print "Iteration:  i = $i , j = $j, k = $k, l = $l "
Iteration:  i = 1 , j = 13, k = 1, l = 1 

variable adj_count equal "1000 + v_count"

print " "
 
print " "
 
print "----------------------------------------------------------------"
----------------------------------------------------------------
print "Iteration ${count} of ${countmax}"
Iteration 13 of 1000
print "----------------------------------------------------------------"
----------------------------------------------------------------
print " "
 

# Reset current timestep
reset_timestep 0

# spherical indenter to shatter target

#q is velocity for indent.txt
variable         q equal "1+(0.001*v_l)"

# indenter radius (w) for indent.txt
variable         w equal "0.0020+(0.001*v_k)"

#disk radius(v_r)
variable r equal 0.037

variable        y0 equal 0.00510
variable        vy equal -100
variable        y equal "v_y0 + v_q*step*dt*v_vy"

#Hit the whole disk
#variable        x equal "cos((PI/2)*v_i/v_imax)*((v_i-1)/v_imax*v_r)"
#variable        z equal "sin((PI/2)*v_j/v_jmax)*((v_j-1)/v_jmax*v_r)"

#Hit the disk reduced 5times compare to disk size
variable        x equal "cos((2*PI)*(v_i/v_imax + 0.5*v_i/v_imax))*(v_j/v_jmax + 0.5/v_jmax)*v_r*(0.5)"
variable        z equal "sin((2*PI)*(v_i/v_imax + 0.5*v_i/v_imax))*(v_j/v_jmax + 0.5/v_jmax)*v_r*(0.5)"

compute         1 all damage/atom
timestep        1.0e-7
thermo          100

dump            ${adj_count} all custom 1000 Data/dump_${adj_count}.peri id type x y z c_1
dump            1013 all custom 1000 Data/dump_${adj_count}.peri id type x y z c_1
dump            1013 all custom 1000 Data/dump_1013.peri id type x y z c_1

run             1000
Neighbor list info ...
  2 neighbor list requests
  update every 1 steps, delay 10 steps, check yes
  max neighbors/atom: 2000, page size: 100000
  master list distance cutoff = 0.0025001
  ghost atom cutoff = 0.0025001
  binsize = 0.00125005 -> bins = 60 3 60
Peridynamic bonds:
  total # of bonds = 185180
  bonds/atom = 14.4053
Memory usage per processor = 9.32606 Mbytes
Step Temp E_pair E_mol TotEng Press Volume 
       0            0            0            0            0            0 1.095912e-05 
     100            0            0            0            0            0 1.095912e-05 
     200            0            0            0            0            0 1.095912e-05 
     300 8.3242574e+22    29508.431            0    51667.871 1.3480062e+09 1.095912e-05 
     400 9.2998255e+24    1500013.2            0    3975656.6 1.5059867e+11 1.095912e-05 
     500 1.4984277e+26    9575159.5            0     49463784 2.4265102e+12 1.095912e-05 
     600 6.4983545e+26     16853311            0 1.8984159e+08 8.3952078e+12 1.3737065e-05 
     700 1.5506024e+27      8127618            0 4.2090293e+08 1.0684129e+13 2.5756291e-05 
     800 2.0349736e+27    4401716.6            0 5.4611821e+08 9.6572689e+12 3.7396114e-05 
     900 2.0852584e+27    4632327.1            0 5.5973479e+08 7.0428484e+12 5.2545261e-05 
    1000 2.0853703e+27    3303445.3            0 5.5843569e+08 5.4655402e+12 6.7713008e-05 
Loop time of 19.6215 on 1 procs for 1000 steps with 12855 atoms

99.3% CPU use with 1 MPI tasks x 1 OpenMP threads

MPI task timing breakdown:
Section |  min time  |  avg time  |  max time  |%varavg| %total
---------------------------------------------------------------
Pair    | 18.476     | 18.476     | 18.476     |   0.0 | 94.16
Neigh   | 0.19621    | 0.19621    | 0.19621    |   0.0 |  1.00
Comm    | 0.0049171  | 0.0049171  | 0.0049171  |   0.0 |  0.03
Output  | 0.034605   | 0.034605   | 0.034605   |   0.0 |  0.18
Modify  | 0.71077    | 0.71077    | 0.71077    |   0.0 |  3.62
Other   |            | 0.1986     |            |       |  1.01

Nlocal:    12855 ave 12855 max 12855 min
Histogram: 1 0 0 0 0 0 0 0 0 0
Nghost:    0 ave 0 max 0 min
Histogram: 1 0 0 0 0 0 0 0 0 0
Neighs:    333476 ave 333476 max 333476 min
Histogram: 1 0 0 0 0 0 0 0 0 0
FullNghs:  674306 ave 674306 max 674306 min
Histogram: 1 0 0 0 0 0 0 0 0 0

Total # of neighbors = 674306
Ave neighs/atom = 52.4548
Neighbor list builds = 15
Dangerous builds = 0

# SAVE INDENTER
print $x file Data/indenter_${adj_count}.txt
print 0.0122663120434745 file Data/indenter_${adj_count}.txt
print 0.0122663120434745 file Data/indenter_1013.txt
0.0122663120434745
print $z append Data/indenter_${adj_count}.txt
print 0.00233992416588924 append Data/indenter_${adj_count}.txt
print 0.00233992416588924 append Data/indenter_1013.txt
0.00233992416588924
print $w append Data/indenter_${adj_count}.txt
print 0.003 append Data/indenter_${adj_count}.txt
print 0.003 append Data/indenter_1013.txt
0.003
print $q append Data/indenter_${adj_count}.txt
print 1.001 append Data/indenter_${adj_count}.txt
print 1.001 append Data/indenter_1013.txt
1.001

next j
next count
jump SELF start_of_loop_4
variable j loop ${jmax}
variable j loop 20
clear
WARNING: OMP_NUM_THREADS environment is not set. (../comm.cpp:90)
  using 1 OpenMP thread(s) per MPI task

# DEFINE INITIAL CONDITIONS
# small Peridynamic cylinder hit by projectile
units		si
boundary        s s s
dimension	3
atom_style      peri
atom_modify	map array
neighbor        0.0010 bin

# small target
lattice         sc 0.001
Lattice spacing in x,y,z = 0.001 0.001 0.001
region          target cylinder y 0.0 0.0 0.037 -0.0025 0.0 units box
create_box      1 target
Created orthogonal box = (-0.037 -0.0025 -0.037) to (0.037 0 0.037)
  1 by 1 by 1 MPI processor grid
create_atoms    1 region target
Created 12855 atoms

pair_style      peri/pmb
pair_coeff      * * 1.6863e22 0.0015001 0.0005 0.25
set             group all density 2200
  12855 settings made for density
set             group all volume 1.25e-10
  12855 settings made for volume
velocity        all set 0.0 0.0 0.0 sum no units box
fix             1 all nve
fix             2 all indent 1e16 sphere v_x v_y v_z v_w units box


print "Iteration:  i = $i , j = $j, k = $k, l = $l "
Iteration:  i = 1 , j = 14, k = 1, l = 1 

variable adj_count equal "1000 + v_count"

print " "
 
print " "
 
print "----------------------------------------------------------------"
----------------------------------------------------------------
print "Iteration ${count} of ${countmax}"
Iteration 14 of 1000
print "----------------------------------------------------------------"
----------------------------------------------------------------
print " "
 

# Reset current timestep
reset_timestep 0

# spherical indenter to shatter target

#q is velocity for indent.txt
variable         q equal "1+(0.001*v_l)"

# indenter radius (w) for indent.txt
variable         w equal "0.0020+(0.001*v_k)"

#disk radius(v_r)
variable r equal 0.037

variable        y0 equal 0.00510
variable        vy equal -100
variable        y equal "v_y0 + v_q*step*dt*v_vy"

#Hit the whole disk
#variable        x equal "cos((PI/2)*v_i/v_imax)*((v_i-1)/v_imax*v_r)"
#variable        z equal "sin((PI/2)*v_j/v_jmax)*((v_j-1)/v_jmax*v_r)"

#Hit the disk reduced 5times compare to disk size
variable        x equal "cos((2*PI)*(v_i/v_imax + 0.5*v_i/v_imax))*(v_j/v_jmax + 0.5/v_jmax)*v_r*(0.5)"
variable        z equal "sin((2*PI)*(v_i/v_imax + 0.5*v_i/v_imax))*(v_j/v_jmax + 0.5/v_jmax)*v_r*(0.5)"

compute         1 all damage/atom
timestep        1.0e-7
[...]
  ghost atom cutoff = 0.0025001
  binsize = 0.00125005 -> bins = 60 3 60
Peridynamic bonds:
  total # of bonds = 185180
  bonds/atom = 14.4053
Memory usage per processor = 9.32606 Mbytes
Step Temp E_pair E_mol TotEng Press Volume 
       0            0            0            0            0            0 1.095912e-05 
     100            0            0            0            0            0 1.095912e-05 
     200            0            0            0            0            0 1.095912e-05 
     300 8.3998143e+22    29414.999            0    51775.573 1.3602416e+09 1.095912e-05 
     400 9.4049603e+24    1412371.1            0    3916001.7 1.5230119e+11 1.095912e-05 
     500 1.5265675e+26    9703069.1            0     50340786 2.472079e+12 1.095912e-05 
     600 6.4166826e+26     19686415            0 1.9050056e+08 8.0878527e+12 1.4079893e-05 
     700 1.5354007e+27    9905413.3            0 4.1863401e+08 1.0380141e+13 2.6250677e-05 
     800 2.0327717e+27    6638538.4            0 5.4776887e+08 9.152688e+12 3.9415039e-05 
     900 2.0912933e+27    4452770.3            0 5.6116174e+08 6.2401331e+12 5.9476186e-05 
    1000 2.0842822e+27    4430827.2            0 5.5927343e+08 4.9060244e+12 7.5396093e-05 
Loop time of 20.7091 on 1 procs for 1000 steps with 12855 atoms

95.5% CPU use with 1 MPI tasks x 1 OpenMP threads

MPI task timing breakdown:
Section |  min time  |  avg time  |  max time  |%varavg| %total
---------------------------------------------------------------
Pair    | 19.37      | 19.37      | 19.37      |   0.0 | 93.53
Neigh   | 0.21658    | 0.21658    | 0.21658    |   0.0 |  1.05
Comm    | 0.0055656  | 0.0055656  | 0.0055656  |   0.0 |  0.03
Output  | 0.041149   | 0.041149   | 0.041149   |   0.0 |  0.20
Modify  | 0.82995    | 0.82995    | 0.82995    |   0.0 |  4.01
Other   |            | 0.246      |            |       |  1.19

Nlocal:    12855 ave 12855 max 12855 min
Histogram: 1 0 0 0 0 0 0 0 0 0
Nghost:    0 ave 0 max 0 min
Histogram: 1 0 0 0 0 0 0 0 0 0
Neighs:    333549 ave 333549 max 333549 min
Histogram: 1 0 0 0 0 0 0 0 0 0
FullNghs:  674306 ave 674306 max 674306 min
Histogram: 1 0 0 0 0 0 0 0 0 0

Total # of neighbors = 674306
Ave neighs/atom = 52.4548
Neighbor list builds = 16
Dangerous builds = 0

# SAVE INDENTER
print $x file Data/indenter_${adj_count}.txt
print 0.00820053497643832 file Data/indenter_${adj_count}.txt
print 0.00820053497643832 file Data/indenter_1050.txt
0.00820053497643832
print $z append Data/indenter_${adj_count}.txt
print 0.00520421774623351 append Data/indenter_${adj_count}.txt
print 0.00520421774623351 append Data/indenter_1050.txt
0.00520421774623351
print $w append Data/indenter_${adj_count}.txt
print 0.003 append Data/indenter_${adj_count}.txt
print 0.003 append Data/indenter_1050.txt
0.003
print $q append Data/indenter_${adj_count}.txt
print 1.001 append Data/indenter_${adj_count}.txt
print 1.001 append Data/indenter_1050.txt
1.001

next j
next count
jump SELF start_of_loop_4
variable j loop ${jmax}
variable j loop 20
clear
WARNING: OMP_NUM_THREADS environment is not set. (../comm.cpp:90)
  using 1 OpenMP thread(s) per MPI task

# DEFINE INITIAL CONDITIONS
# small Peridynamic cylinder hit by projectile
units		si
boundary        s s s
dimension	3
atom_style      peri
atom_modify	map array
neighbor        0.0010 bin

# small target
lattice         sc 0.001
Lattice spacing in x,y,z = 0.001 0.001 0.001
region          target cylinder y 0.0 0.0 0.037 -0.0025 0.0 units box
create_box      1 target
Created orthogonal box = (-0.037 -0.0025 -0.037) to (0.037 0 0.037)
  1 by 1 by 1 MPI processor grid
create_atoms    1 region target
Created 12855 atoms

pair_style      peri/pmb
pair_coeff      * * 1.6863e22 0.0015001 0.0005 0.25
set             group all density 2200
  12855 settings made for density
set             group all volume 1.25e-10
  12855 settings made for volume
velocity        all set 0.0 0.0 0.0 sum no units box
fix             1 all nve
fix             2 all indent 1e16 sphere v_x v_y v_z v_w units box


print "Iteration:  i = $i , j = $j, k = $k, l = $l "
Iteration:  i = 3 , j = 11, k = 1, l = 1 

variable adj_count equal "1000 + v_count"

print " "
 
print " "
 
print "----------------------------------------------------------------"
----------------------------------------------------------------
print "Iteration ${count} of ${countmax}"
Iteration 51 of 1000
print "----------------------------------------------------------------"
----------------------------------------------------------------
print " "
 

# Reset current timestep
reset_timestep 0

# spherical indenter to shatter target

#q is velocity for indent.txt
variable         q equal "1+(0.001*v_l)"

# indenter radius (w) for indent.txt
variable         w equal "0.0020+(0.001*v_k)"

#disk radius(v_r)
variable r equal 0.037

variable        y0 equal 0.00510
variable        vy equal -100
variable        y equal "v_y0 + v_q*step*dt*v_vy"

#Hit the whole disk
#variable        x equal "cos((PI/2)*v_i/v_imax)*((v_i-1)/v_imax*v_r)"
#variable        z equal "sin((PI/2)*v_j/v_jmax)*((v_j-1)/v_jmax*v_r)"

#Hit the disk reduced 5times compare to disk size
variable        x equal "cos((2*PI)*(v_i/v_imax + 0.5*v_i/v_imax))*(v_j/v_jmax + 0.5/v_jmax)*v_r*(0.5)"
variable        z equal "sin((2*PI)*(v_i/v_imax + 0.5*v_i/v_imax))*(v_j/v_jmax + 0.5/v_jmax)*v_r*(0.5)"

compute         1 all damage/atom
timestep        1.0e-7
thermo          100

dump            ${adj_count} all custom 1000 Data/dump_${adj_count}.peri id type x y z c_1
dump            1051 all custom 1000 Data/dump_${adj_count}.peri id type x y z c_1
dump            1051 all custom 1000 Data/dump_1051.peri id type x y z c_1

run             1000
Neighbor list info ...
  2 neighbor list requests
  update every 1 steps, delay 10 steps, check yes
  max neighbors/atom: 2000, page size: 100000
  master list distance cutoff = 0.0025001
  ghost atom cutoff = 0.0025001
  binsize = 0.00125005 -> bins = 60 3 60
Peridynamic bonds:
  total # of bonds = 185180
  bonds/atom = 14.4053
Memory usage per processor = 9.32606 Mbytes
Step Temp E_pair E_mol TotEng Press Volume 
       0            0            0            0            0            0 1.095912e-05 
     100            0            0            0            0            0 1.095912e-05 
     200            0            0            0            0            0 1.095912e-05 
     300 8.4029574e+22    29430.193            0    51799.135 1.3607506e+09 1.095912e-05 
     400 9.3289358e+24    1429189.5            0    3912582.1 1.5107007e+11 1.095912e-05 
     500 1.5157388e+26     10073182            0     50422635 2.4545434e+12 1.095912e-05 
     600 6.5621172e+26     16192071            0 1.9087773e+08 8.4030069e+12 1.3858981e-05 
     700 1.5929972e+27    8624390.9            0 4.3268536e+08 1.1477308e+13 2.4631849e-05 
     800 2.0754031e+27      7527892            0 5.6000685e+08 1.0724182e+13 3.4344746e-05 
     900 2.1284075e+27    3604589.5            0 5.7019348e+08 7.5748127e+12 4.9866041e-05 
    1000 2.1258768e+27    3111182.4            0 5.690264e+08 5.7737945e+12 6.5342957e-05 
Loop time of 20.2523 on 1 procs for 1000 steps with 12855 atoms

96.5% CPU use with 1 MPI tasks x 1 OpenMP threads

MPI task timing breakdown:
Section |  min time  |  avg time  |  max time  |%varavg| %total
---------------------------------------------------------------
Pair    | 19.052     | 19.052     | 19.052     |   0.0 | 94.07
Neigh   | 0.19426    | 0.19426    | 0.19426    |   0.0 |  0.96
Comm    | 0.0051148  | 0.0051148  | 0.0051148  |   0.0 |  0.03
Output  | 0.034304   | 0.034304   | 0.034304   |   0.0 |  0.17
Modify  | 0.75492    | 0.75492    | 0.75492    |   0.0 |  3.73
Other   |            | 0.2117     |            |       |  1.05

Nlocal:    12855 ave 12855 max 12855 min
Histogram: 1 0 0 0 0 0 0 0 0 0
Nghost:    0 ave 0 max 0 min
Histogram: 1 0 0 0 0 0 0 0 0 0
Neighs:    333632 ave 333632 max 333632 min
Histogram: 1 0 0 0 0 0 0 0 0 0
FullNghs:  674306 ave 674306 max 674306 min
Histogram: 1 0 0 0 0 0 0 0 0 0

Total # of neighbors = 674306
Ave neighs/atom = 52.4548
Neighbor list builds = 15
Dangerous builds = 0

# SAVE INDENTER
print $x file Data/indenter_${adj_count}.txt
print 0.00898153830752769 file Data/indenter_${adj_count}.txt
print 0.00898153830752769 file Data/indenter_1051.txt
0.00898153830752769
print $z append Data/indenter_${adj_count}.txt
print 0.00569985753158908 append Data/indenter_${adj_count}.txt
print 0.00569985753158908 append Data/indenter_1051.txt
0.00569985753158908
print $w append Data/indenter_${adj_count}.txt
print 0.003 append Data/indenter_${adj_count}.txt
print 0.003 append Data/indenter_1051.txt
0.003
print $q append Data/indenter_${adj_count}.txt
print 1.001 append Data/indenter_${adj_count}.txt
print 1.001 append Data/indenter_1051.txt
1.001

next j
next count
jump SELF start_of_loop_4
variable j loop ${jmax}
variable j loop 20
clear
WARNING: OMP_NUM_THREADS environment is not set. (../comm.cpp:90)
  using 1 OpenMP thread(s) per MPI task

# DEFINE INITIAL CONDITIONS
# small Peridynamic cylinder hit by projectile
units		si
boundary        s s s
dimension	3
atom_style      peri
atom_modify	map array
neighbor        0.0010 bin

# small target
lattice         sc 0.001
Lattice spacing in x,y,z = 0.001 0.001 0.001
region          target cylinder y 0.0 0.0 0.037 -0.0025 0.0 units box
create_box      1 target
Created orthogonal box = (-0.037 -0.0025 -0.037) to (0.037 0 0.037)
  1 by 1 by 1 MPI processor grid
create_atoms    1 region target
Created 12855 atoms

pair_style      peri/pmb
pair_coeff      * * 1.6863e22 0.0015001 0.0005 0.25
set             group all density 2200
  12855 settings made for density
set             group all volume 1.25e-10
  12855 settings made for volume
velocity        all set 0.0 0.0 0.0 sum no units box
fix             1 all nve
fix             2 all indent 1e16 sphere v_x v_y v_z v_w units box


print "Iteration:  i = $i , j = $j, k = $k, l = $l "
Iteration:  i = 3 , j = 12, k = 1, l = 1 

variable adj_count equal "1000 + v_count"

print " "
 
print " "
 
print "----------------------------------------------------------------"
----------------------------------------------------------------
print "Iteration ${count} of ${countmax}"
Iteration 52 of 1000
print "----------------------------------------------------------------"
----------------------------------------------------------------
print " "
 

# Reset current timestep
reset_timestep 0

# spherical indenter to shatter target

#q is velocity for indent.txt
variable         q equal "1+(0.001*v_l)"

# indenter radius (w) for indent.txt
variable         w equal "0.0020+(0.001*v_k)"

#disk radius(v_r)
variable r equal 0.037

variable        y0 equal 0.00510
variable        vy equal -100
variable        y equal "v_y0 + v_q*step*dt*v_vy"

#Hit the whole disk
#variable        x equal "cos((PI/2)*v_i/v_imax)*((v_i-1)/v_imax*v_r)"
#variable        z equal "sin((PI/2)*v_j/v_jmax)*((v_j-1)/v_jmax*v_r)"

#Hit the disk reduced 5times compare to disk size
variable        x equal "cos((2*PI)*(v_i/v_imax + 0.5*v_i/v_imax))*(v_j/v_jmax + 0.5/v_jmax)*v_r*(0.5)"
variable        z equal "sin((2*PI)*(v_i/v_imax + 0.5*v_i/v_imax))*(v_j/v_jmax + 0.5/v_jmax)*v_r*(0.5)"

compute         1 all damage/atom
timestep        1.0e-7
thermo          100

dump            ${adj_count} all custom 1000 Data/dump_${adj_count}.peri id type x y z c_1
dump            1052 all custom 1000 Data/dump_${adj_count}.peri id type x y z c_1
dump            1052 all custom 1000 Data/dump_1052.peri id type x y z c_1

run             1000
Neighbor list info ...
  2 neighbor list requests
  update every 1 steps, delay 10 steps, check yes
  max neighbors/atom: 2000, page size: 100000
  master list distance cutoff = 0.0025001
  ghost atom cutoff = 0.0025001
  binsize = 0.00125005 -> bins = 60 3 60
Peridynamic bonds:
  total # of bonds = 185180
  bonds/atom = 14.4053
Memory usage per processor = 9.32606 Mbytes
Step Temp E_pair E_mol TotEng Press Volume 
       0            0            0            0            0            0 1.095912e-05 
     100            0            0            0            0            0 1.095912e-05 
     200            0            0            0            0            0 1.095912e-05 
     300 8.3883657e+22    29431.056            0    51761.154 1.3583877e+09 1.095912e-05 
     400 9.4247467e+24    1420894.6            0    3929792.3 1.5262161e+11 1.095912e-05 
     500 1.5172225e+26    9653486.1            0     50042436 2.456946e+12 1.095912e-05 
     600 6.4333685e+26     17967835            0 1.8922617e+08 8.1042788e+12 1.4087894e-05 
     700 1.5570418e+27    7504906.4            0 4.2199443e+08 1.0674465e+13 2.588667e-05 
     800 2.0110117e+27    7690844.8            0 5.4302861e+08 8.7660712e+12 4.0712861e-05 
     900 2.0793462e+27    4032600.4            0 5.5756122e+08 6.7618474e+12 5.4573707e-05 
    1000 2.0815513e+27    2634410.2            0 5.5675003e+08 5.397588e+12 6.8439905e-05 
Loop time of 20.0878 on 1 procs for 1000 steps with 12855 atoms

97.7% CPU use with 1 MPI tasks x 1 OpenMP threads

MPI task timing breakdown:
Section |  min time  |  avg time  |  max time  |%varavg| %total
---------------------------------------------------------------
Pair    | 18.857     | 18.857     | 18.857     |   0.0 | 93.87
Neigh   | 0.21774    | 0.21774    | 0.21774    |   0.0 |  1.08
Comm    | 0.0052819  | 0.0052819  | 0.0052819  |   0.0 |  0.03
Output  | 0.040945   | 0.040945   | 0.040945   |   0.0 |  0.20
Modify  | 0.75748    | 0.75748    | 0.75748    |   0.0 |  3.77
Other   |            | 0.2091     |            |       |  1.04

Nlocal:    12855 ave 12855 max 12855 min
Histogram: 1 0 0 0 0 0 0 0 0 0
Nghost:    0 ave 0 max 0 min
Histogram: 1 0 0 0 0 0 0 0 0 0
Neighs:    333433 ave 333433 max 333433 min
Histogram: 1 0 0 0 0 0 0 0 0 0
FullNghs:  674306 ave 674306 max 674306 min
Histogram: 1 0 0 0 0 0 0 0 0 0

Total # of neighbors = 674306
Ave neighs/atom = 52.4548
Neighbor list builds = 16
Dangerous builds = 0

# SAVE INDENTER
print $x file Data/indenter_${adj_count}.txt
print 0.00976254163861705 file Data/indenter_${adj_count}.txt
print 0.00976254163861705 file Data/indenter_1052.txt
0.00976254163861705
print $z append Data/indenter_${adj_count}.txt
print 0.00619549731694465 append Data/indenter_${adj_count}.txt
print 0.00619549731694465 append Data/indenter_1052.txt
0.00619549731694465
print $w append Data/indenter_${adj_count}.txt
print 0.003 append Data/indenter_${adj_count}.txt
print 0.003 append Data/indenter_1052.txt
0.003
print $q append Data/indenter_${adj_count}.txt
print 1.001 append Data/indenter_${adj_count}.txt
print 1.001 append Data/indenter_1052.txt
1.001

next j
next count
jump SELF start_of_loop_4
variable j loop ${jmax}
variable j loop 20
clear
WARNING: OMP_NUM_THREADS environment is not set. (../comm.cpp:90)
  using 1 OpenMP thread(s) per MPI task

# DEFINE INITIAL CONDITIONS
# small Peridynamic cylinder hit by projectile
units		si
boundary        s s s
dimension	3
atom_style      peri
atom_modify	map array
neighbor        0.0010 bin

# small target
lattice         sc 0.001
Lattice spacing in x,y,z = 0.001 0.001 0.001
region          target cylinder y 0.0 0.0 0.037 -0.0025 0.0 units box
create_box      1 target
Created orthogonal box = (-0.037 -0.0025 -0.037) to (0.037 0 0.037)
  1 by 1 by 1 MPI processor grid
create_atoms    1 region target
Created 12855 atoms

pair_style      peri/pmb
pair_coeff      * * 1.6863e22 0.0015001 0.0005 0.25
set             group all density 2200
  12855 settings made for density
set             group all volume 1.25e-10
  12855 settings made for volume
velocity        all set 0.0 0.0 0.0 sum no units box
fix             1 all nve
fix             2 all indent 1e16 sphere v_x v_y v_z v_w units box


print "Iteration:  i = $i , j = $j, k = $k, l = $l "
Iteration:  i = 3 , j = 13, k = 1, l = 1 

variable adj_count equal "1000 + v_count"

print " "
 
print " "
 
print "----------------------------------------------------------------"
----------------------------------------------------------------
print "Iteration ${count} of ${countmax}"
Iteration 53 of 1000
print "----------------------------------------------------------------"
----------------------------------------------------------------
print " "
 

# Reset current timestep
reset_timestep 0

# spherical indenter to shatter target

#q is velocity for indent.txt
variable         q equal "1+(0.001*v_l)"

# indenter radius (w) for indent.txt
variable         w equal "0.0020+(0.001*v_k)"

#disk radius(v_r)
variable r equal 0.037

variable        y0 equal 0.00510
variable        vy equal -100
variable        y equal "v_y0 + v_q*step*dt*v_vy"

#Hit the whole disk
#variable        x equal "cos((PI/2)*v_i/v_imax)*((v_i-1)/v_imax*v_r)"
#variable        z equal "sin((PI/2)*v_j/v_jmax)*((v_j-1)/v_jmax*v_r)"

#Hit the disk reduced 5times compare to disk size
variable        x equal "cos((2*PI)*(v_i/v_imax + 0.5*v_i/v_imax))*(v_j/v_jmax + 0.5/v_jmax)*v_r*(0.5)"
variable        z equal "sin((2*PI)*(v_i/v_imax + 0.5*v_i/v_imax))*(v_j/v_jmax + 0.5/v_jmax)*v_r*(0.5)"

compute         1 all damage/atom
timestep        1.0e-7
thermo          100

dump            ${adj_count} all custom 1000 Data/dump_${adj_count}.peri id type x y z c_1
dump            1053 all custom 1000 Data/dump_${adj_count}.peri id type x y z c_1
dump            1053 all custom 1000 Data/dump_1053.peri id type x y z c_1

run             1000
Neighbor list info ...
  2 neighbor list requests
  update every 1 steps, delay 10 steps, check yes
  max neighbors/atom: 2000, page size: 100000
  master list distance cutoff = 0.0025001
  ghost atom cutoff = 0.0025001
  binsize = 0.00125005 -> bins = 60 3 60
Peridynamic bonds:
  total # of bonds = 185180
  bonds/atom = 14.4053
Memory usage per processor = 9.32606 Mbytes
Step Temp E_pair E_mol TotEng Press Volume 
       0            0            0            0            0            0 1.095912e-05 
     100            0            0            0            0            0 1.095912e-05 
     200            0            0            0            0            0 1.095912e-05 
     300 8.2865746e+22    29545.979            0    51605.106 1.3419039e+09 1.095912e-05 
     400 9.2928541e+24    1516204.6            0    3989992.1 1.5048578e+11 1.095912e-05 
     500 1.4656786e+26    9012752.1            0     48029587 2.3734773e+12 1.095912e-05 
     600 6.2292384e+26     15013496            0 1.8083782e+08 7.8880994e+12 1.4014726e-05 
     700 1.5529769e+27      6930481            0 4.2033792e+08 1.2141087e+13 2.2700188e-05 
     800 2.0700368e+27    5042413.3            0 5.5609283e+08 9.7209429e+12 3.7791287e-05 
     900 2.1280105e+27    3977372.5            0 5.7046058e+08 7.2093771e+12 5.2383925e-05 
    1000 2.1276593e+27    3413126.9            0 5.6980284e+08 5.961406e+12 6.3339611e-05 
Loop time of 20.5957 on 1 procs for 1000 steps with 12855 atoms

95.6% CPU use with 1 MPI tasks x 1 OpenMP threads

MPI task timing breakdown:
Section |  min time  |  avg time  |  max time  |%varavg| %total
---------------------------------------------------------------
Pair    | 19.331     | 19.331     | 19.331     |   0.0 | 93.86
Neigh   | 0.19628    | 0.19628    | 0.19628    |   0.0 |  0.95
Comm    | 0.004951   | 0.004951   | 0.004951   |   0.0 |  0.02
Output  | 0.059232   | 0.059232   | 0.059232   |   0.0 |  0.29
Modify  | 0.77881    | 0.77881    | 0.77881    |   0.0 |  3.78
Other   |            | 0.2254     |            |       |  1.09

Nlocal:    12855 ave 12855 max 12855 min
Histogram: 1 0 0 0 0 0 0 0 0 0
Nghost:    0 ave 0 max 0 min
Histogram: 1 0 0 0 0 0 0 0 0 0
Neighs:    333495 ave 333495 max 333495 min
Histogram: 1 0 0 0 0 0 0 0 0 0
FullNghs:  674306 ave 674306 max 674306 min
Histogram: 1 0 0 0 0 0 0 0 0 0

Total # of neighbors = 674306
Ave neighs/atom = 52.4548
Neighbor list builds = 14
Dangerous builds = 0
