LAMMPS (5 Sep 2018)
  using 8 OpenMP thread(s) per MPI task
# DEFINE NUMBER OF X,Z STEPS
# l = velocity k = indenter radius i, j = hiting location
variable imax equal 30
variable kmax equal 1
variable lmax equal 1
variable jmax equal 1
variable jstart equal 0
variable jrate equal 5
variable countmax equal "v_jrate*v_imax*(v_imax+1)/2 + v_jstart*v_imax"

# DEFINE TOTAL NUMBER OF STEPS
variable count loop ${countmax}
variable count loop 2325

print "imax = ${imax}"
imax = 30
print "jmax = ${jmax}"
jmax = 1
print "kmax = ${kmax}"
kmax = 1
print "lmax = ${lmax}"
lmax = 1

# START LOOPS
# Loop 1
label start_of_loop_1
variable l loop ${lmax}
variable l loop 1

# Loop 2
label start_of_loop_2
variable k loop ${kmax}
variable k loop 1

# Loop 3
label start_of_loop_3
variable i loop ${imax}
variable i loop 30

variable jmax equal "5*v_i"

print "imax = ${imax}"
imax = 30
print "jmax = ${jmax}"
jmax = 5

# Loop 4
label start_of_loop_4
variable j loop ${jmax}
variable j loop 5
clear
  using 8 OpenMP thread(s) per MPI task

# DEFINE INITIAL CONDITIONS
# small Peridynamic cylinder hit by projectile
units		si
boundary        s s s
dimension	3
atom_style      peri
atom_modify	map array
neighbor        0.0010 bin

# small target
lattice         sc 0.001
Lattice spacing in x,y,z = 0.001 0.001 0.001
region          target cylinder y 0.0 0.0 0.037 -0.0025 0.0 units box
create_box      1 target
Created orthogonal box = (-0.037 -0.0025 -0.037) to (0.037 0 0.037)
  1 by 1 by 1 MPI processor grid
create_atoms    1 region target
Created 12855 atoms
  Time spent = 0.00331522 secs

pair_style      peri/pmb
pair_coeff      * * 1.6863e22 0.0015001 0.0005 0.25
set             group all density 2200
  12855 settings made for density
set             group all volume 1.25e-10
  12855 settings made for volume
velocity        all set 0.0 0.0 0.0 sum no units box
fix             1 all nve
fix             2 all indent 1e16 sphere v_x v_y v_z v_w units box


print "Iteration:  i = $i , j = $j, k = $k, l = $l "
Iteration:  i = 1 , j = 1, k = 1, l = 1 

print " "
 
print " "
 
print "----------------------------------------------------------------"
----------------------------------------------------------------
print "Iteration ${count} of ${countmax}"
Iteration 1 of 2325
print "----------------------------------------------------------------"
----------------------------------------------------------------
print " "
 

# Reset current timestep
reset_timestep 0

# spherical indenter to shatter target

#q is velocity for indent.txt
variable         q equal "1+(0.001*v_l)"

# indenter radius (w) for indent.txt
variable         w equal "0.0020+(0.001*v_k)"

#disk radius(v_r)
variable r equal 0.037

variable        y0 equal 0.00510
variable        vy equal -100
variable        y equal "v_y0 + v_q*step*dt*v_vy"

#Hit the whole disk
#variable        x equal "cos((PI/2)*v_i/v_imax)*((v_i-1)/v_imax*v_r)"
#variable        z equal "sin((PI/2)*v_j/v_jmax)*((v_j-1)/v_jmax*v_r)"

#Hit the disk reduced 5times compare to disk size
variable        x equal "cos((2*PI)*v_j/v_jmax)*(v_i/v_imax)*v_r*(0.33)"
variable        z equal "sin((2*PI)*v_j/v_jmax)*(v_i/v_imax)*v_r*(0.33)"

compute         1 all damage/atom
timestep        1.0e-7
thermo          100

dump            ${count} all custom 1000 Data/dump_${count}.peri id type x y z c_1
dump            1 all custom 1000 Data/dump_${count}.peri id type x y z c_1
dump            1 all custom 1000 Data/dump_1.peri id type x y z c_1

run             1
Neighbor list info ...
  update every 1 steps, delay 10 steps, check yes
  max neighbors/atom: 2000, page size: 100000
  master list distance cutoff = 0.0025001
  ghost atom cutoff = 0.0025001
  binsize = 0.00125005, bins = 60 3 60
  2 neighbor lists, perpetual/occasional/extra = 1 1 0
  (1) pair peri/pmb, perpetual
      attributes: half, newton on
      pair build: half/bin/atomonly/newton
      stencil: half/bin/3d/newton
      bin: standard
  (2) fix PERI_NEIGH, occasional
      attributes: full, newton on
      pair build: full/bin/atomonly
      stencil: full/bin/3d
      bin: standard
Peridynamic bonds:
  total # of bonds = 185180
  bonds/atom = 14.4053
Per MPI rank memory allocation (min/avg/max) = 22.9 | 22.9 | 22.9 Mbytes
Step Temp E_pair E_mol TotEng Press Volume 
       0            0            0            0            0            0 1.095912e-05 
       1            0            0            0            0            0 1.095912e-05 
Loop time of 0.0137919 on 8 procs for 1 steps with 12855 atoms

98.7% CPU use with 1 MPI tasks x 8 OpenMP threads

MPI task timing breakdown:
Section |  min time  |  avg time  |  max time  |%varavg| %total
---------------------------------------------------------------
Pair    | 0.012079   | 0.012079   | 0.012079   |   0.0 | 87.58
Neigh   | 0          | 0          | 0          |   0.0 |  0.00
Comm    | 3.838e-06  | 3.838e-06  | 3.838e-06  |   0.0 |  0.03
Output  | 0.00044406 | 0.00044406 | 0.00044406 |   0.0 |  3.22
Modify  | 0.0012228  | 0.0012228  | 0.0012228  |   0.0 |  8.87
Other   |            | 4.183e-05  |            |       |  0.30

Nlocal:    12855 ave 12855 max 12855 min
Histogram: 1 0 0 0 0 0 0 0 0 0
Nghost:    0 ave 0 max 0 min
Histogram: 1 0 0 0 0 0 0 0 0 0
Neighs:    337153 ave 337153 max 337153 min
Histogram: 1 0 0 0 0 0 0 0 0 0
FullNghs:  674306 ave 674306 max 674306 min
Histogram: 1 0 0 0 0 0 0 0 0 0

Total # of neighbors = 674306
Ave neighs/atom = 52.4548
Neighbor list builds = 0
Dangerous builds = 0

# SAVE INDENTER
print $x file Data/indenter_${count}.txt
print 0.000125769916710604 file Data/indenter_${count}.txt
print 0.000125769916710604 file Data/indenter_1.txt
0.000125769916710604
print $z append Data/indenter_${count}.txt
print 0.000387080002132128 append Data/indenter_${count}.txt
print 0.000387080002132128 append Data/indenter_1.txt
0.000387080002132128
print $w append Data/indenter_${count}.txt
print 0.003 append Data/indenter_${count}.txt
print 0.003 append Data/indenter_1.txt
0.003
print $q append Data/indenter_${count}.txt
print 1.001 append Data/indenter_${count}.txt
print 1.001 append Data/indenter_1.txt
1.001

next j
next count
jump SELF start_of_loop_4
variable j loop ${jmax}
variable j loop 5
clear
  using 8 OpenMP thread(s) per MPI task

# DEFINE INITIAL CONDITIONS
# small Peridynamic cylinder hit by projectile
units		si
boundary        s s s
dimension	3
atom_style      peri
atom_modify	map array
neighbor        0.0010 bin

# small target
lattice         sc 0.001
Lattice spacing in x,y,z = 0.001 0.001 0.001
region          target cylinder y 0.0 0.0 0.037 -0.0025 0.0 units box
create_box      1 target
Created orthogonal box = (-0.037 -0.0025 -0.037) to (0.037 0 0.037)
  1 by 1 by 1 MPI processor grid
create_atoms    1 region target
Created 12855 atoms
  Time spent = 0.00292878 secs

pair_style      peri/pmb
pair_coeff      * * 1.6863e22 0.0015001 0.0005 0.25
set             group all density 2200
  12855 settings made for density
set             group all volume 1.25e-10
  12855 settings made for volume
velocity        all set 0.0 0.0 0.0 sum no units box
fix             1 all nve
fix             2 all indent 1e16 sphere v_x v_y v_z v_w units box


print "Iteration:  i = $i , j = $j, k = $k, l = $l "
Iteration:  i = 1 , j = 2, k = 1, l = 1 

print " "
 
print " "
 
print "----------------------------------------------------------------"
----------------------------------------------------------------
print "Iteration ${count} of ${countmax}"
Iteration 2 of 2325
print "----------------------------------------------------------------"
----------------------------------------------------------------
print " "
 

# Reset current timestep
reset_timestep 0

# spherical indenter to shatter target

#q is velocity for indent.txt
variable         q equal "1+(0.001*v_l)"

# indenter radius (w) for indent.txt
variable         w equal "0.0020+(0.001*v_k)"

#disk radius(v_r)
variable r equal 0.037

variable        y0 equal 0.00510
variable        vy equal -100
variable        y equal "v_y0 + v_q*step*dt*v_vy"

#Hit the whole disk
#variable        x equal "cos((PI/2)*v_i/v_imax)*((v_i-1)/v_imax*v_r)"
#variable        z equal "sin((PI/2)*v_j/v_jmax)*((v_j-1)/v_jmax*v_r)"

#Hit the disk reduced 5times compare to disk size
variable        x equal "cos((2*PI)*v_j/v_jmax)*(v_i/v_imax)*v_r*(0.33)"
variable        z equal "sin((2*PI)*v_j/v_jmax)*(v_i/v_imax)*v_r*(0.33)"

compute         1 all damage/atom
timestep        1.0e-7
thermo          100

dump            ${count} all custom 1000 Data/dump_${count}.peri id type x y z c_1
dump            2 all custom 1000 Data/dump_${count}.peri id type x y z c_1
dump            2 all custom 1000 Data/dump_2.peri id type x y z c_1

run             1
Neighbor list info ...
  update every 1 steps, delay 10 steps, check yes
  max neighbors/atom: 2000, page size: 100000
  master list distance cutoff = 0.0025001
  ghost atom cutoff = 0.0025001
  binsize = 0.00125005, bins = 60 3 60
  2 neighbor lists, perpetual/occasional/extra = 1 1 0
  (1) pair peri/pmb, perpetual
      attributes: half, newton on
      pair build: half/bin/atomonly/newton
      stencil: half/bin/3d/newton
      bin: standard
  (2) fix PERI_NEIGH, occasional
      attributes: full, newton on
      pair build: full/bin/atomonly
      stencil: full/bin/3d
      bin: standard
Peridynamic bonds:
  total # of bonds = 185180
  bonds/atom = 14.4053
Per MPI rank memory allocation (min/avg/max) = 22.9 | 22.9 | 22.9 Mbytes
Step Temp E_pair E_mol TotEng Press Volume 
       0            0            0            0            0            0 1.095912e-05 
       1            0            0            0            0            0 1.095912e-05 
Loop time of 0.0120658 on 8 procs for 1 steps with 12855 atoms

96.1% CPU use with 1 MPI tasks x 8 OpenMP threads

MPI task timing breakdown:
Section |  min time  |  avg time  |  max time  |%varavg| %total
---------------------------------------------------------------
Pair    | 0.011334   | 0.011334   | 0.011334   |   0.0 | 93.93
Neigh   | 0          | 0          | 0          |   0.0 |  0.00
Comm    | 1.691e-06  | 1.691e-06  | 1.691e-06  |   0.0 |  0.01
Output  | 5.1244e-05 | 5.1244e-05 | 5.1244e-05 |   0.0 |  0.42
Modify  | 0.00060807 | 0.00060807 | 0.00060807 |   0.0 |  5.04
Other   |            | 7.091e-05  |            |       |  0.59

Nlocal:    12855 ave 12855 max 12855 min
Histogram: 1 0 0 0 0 0 0 0 0 0
Nghost:    0 ave 0 max 0 min
Histogram: 1 0 0 0 0 0 0 0 0 0
Neighs:    337153 ave 337153 max 337153 min
Histogram: 1 0 0 0 0 0 0 0 0 0
FullNghs:  674306 ave 674306 max 674306 min
Histogram: 1 0 0 0 0 0 0 0 0 0

Total # of neighbors = 674306
Ave neighs/atom = 52.4548
Neighbor list builds = 0
Dangerous builds = 0

# SAVE INDENTER
print $x file Data/indenter_${count}.txt
print -0.000329269916710604 file Data/indenter_${count}.txt
print -0.000329269916710604 file Data/indenter_2.txt
-0.000329269916710604
print $z append Data/indenter_${count}.txt
print 0.000239228597683037 append Data/indenter_${count}.txt
print 0.000239228597683037 append Data/indenter_2.txt
0.000239228597683037
print $w append Data/indenter_${count}.txt
print 0.003 append Data/indenter_${count}.txt
print 0.003 append Data/indenter_2.txt
0.003
print $q append Data/indenter_${count}.txt
print 1.001 append Data/indenter_${count}.txt
print 1.001 append Data/indenter_2.txt
1.001

next j
next count
jump SELF start_of_loop_4
variable j loop ${jmax}
variable j loop 5
clear
  using 8 OpenMP thread(s) per MPI task

# DEFINE INITIAL CONDITIONS
# small Peridynamic cylinder hit by projectile
units		si
boundary        s s s
dimension	3
atom_style      peri
atom_modify	map array
neighbor        0.0010 bin

# small target
lattice         sc 0.001
Lattice spacing in x,y,z = 0.001 0.001 0.001
region          target cylinder y 0.0 0.0 0.037 -0.0025 0.0 units box
create_box      1 target
Created orthogonal box = (-0.037 -0.0025 -0.037) to (0.037 0 0.037)
  1 by 1 by 1 MPI processor grid
create_atoms    1 region target
Created 12855 atoms
  Time spent = 0.00146137 secs

pair_style      peri/pmb
pair_coeff      * * 1.6863e22 0.0015001 0.0005 0.25
set             group all density 2200
  12855 settings made for density
set             group all volume 1.25e-10
  12855 settings made for volume
velocity        all set 0.0 0.0 0.0 sum no units box
fix             1 all nve
fix             2 all indent 1e16 sphere v_x v_y v_z v_w units box


print "Iteration:  i = $i , j = $j, k = $k, l = $l "
Iteration:  i = 1 , j = 3, k = 1, l = 1 

print " "
 
print " "
 
print "----------------------------------------------------------------"
----------------------------------------------------------------
print "Iteration ${count} of ${countmax}"
Iteration 3 of 2325
print "----------------------------------------------------------------"
----------------------------------------------------------------
print " "
 

# Reset current timestep
reset_timestep 0

# spherical indenter to shatter target

#q is velocity for indent.txt
variable         q equal "1+(0.001*v_l)"

# indenter radius (w) for indent.txt
variable         w equal "0.0020+(0.001*v_k)"

#disk radius(v_r)
variable r equal 0.037

variable        y0 equal 0.00510
variable        vy equal -100
variable        y equal "v_y0 + v_q*step*dt*v_vy"

#Hit the whole disk
#variable        x equal "cos((PI/2)*v_i/v_imax)*((v_i-1)/v_imax*v_r)"
#variable        z equal "sin((PI/2)*v_j/v_jmax)*((v_j-1)/v_jmax*v_r)"

#Hit the disk reduced 5times compare to disk size
variable        x equal "cos((2*PI)*v_j/v_jmax)*(v_i/v_imax)*v_r*(0.33)"
variable        z equal "sin((2*PI)*v_j/v_jmax)*(v_i/v_imax)*v_r*(0.33)"

compute         1 all damage/atom
timestep        1.0e-7
thermo          100

dump            ${count} all custom 1000 Data/dump_${count}.peri id type x y z c_1
dump            3 all custom 1000 Data/dump_${count}.peri id type x y z c_1
dump            3 all custom 1000 Data/dump_3.peri id type x y z c_1

run             1
Neighbor list info ...
  update every 1 steps, delay 10 steps, check yes
  max neighbors/atom: 2000, page size: 100000
  master list distance cutoff = 0.0025001
  ghost atom cutoff = 0.0025001
  binsize = 0.00125005, bins = 60 3 60
  2 neighbor lists, perpetual/occasional/extra = 1 1 0
  (1) pair peri/pmb, perpetual
      attributes: half, newton on
      pair build: half/bin/atomonly/newton
      stencil: half/bin/3d/newton
      bin: standard
  (2) fix PERI_NEIGH, occasional
      attributes: full, newton on
      pair build: full/bin/atomonly
      stencil: full/bin/3d
      bin: standard
Peridynamic bonds:
  total # of bonds = 185180
  bonds/atom = 14.4053
Per MPI rank memory allocation (min/avg/max) = 22.9 | 22.9 | 22.9 Mbytes
Step Temp E_pair E_mol TotEng Press Volume 
       0            0            0            0            0            0 1.095912e-05 
       1            0            0            0            0            0 1.095912e-05 
Loop time of 0.0144505 on 8 procs for 1 steps with 12855 atoms

99.0% CPU use with 1 MPI tasks x 8 OpenMP threads

MPI task timing breakdown:
Section |  min time  |  avg time  |  max time  |%varavg| %total
---------------------------------------------------------------
Pair    | 0.012322   | 0.012322   | 0.012322   |   0.0 | 85.27
Neigh   | 0          | 0          | 0          |   0.0 |  0.00
Comm    | 3.348e-06  | 3.348e-06  | 3.348e-06  |   0.0 |  0.02
Output  | 0.00042666 | 0.00042666 | 0.00042666 |   0.0 |  2.95
Modify  | 0.0016363  | 0.0016363  | 0.0016363  |   0.0 | 11.32
Other   |            | 6.212e-05  |            |       |  0.43

Nlocal:    12855 ave 12855 max 12855 min
Histogram: 1 0 0 0 0 0 0 0 0 0
Nghost:    0 ave 0 max 0 min
Histogram: 1 0 0 0 0 0 0 0 0 0
Neighs:    337153 ave 337153 max 337153 min
Histogram: 1 0 0 0 0 0 0 0 0 0
FullNghs:  674306 ave 674306 max 674306 min
Histogram: 1 0 0 0 0 0 0 0 0 0

Total # of neighbors = 674306
Ave neighs/atom = 52.4548
Neighbor list builds = 0
Dangerous builds = 0

# SAVE INDENTER
print $x file Data/indenter_${count}.txt
print -0.000329269916710604 file Data/indenter_${count}.txt
print -0.000329269916710604 file Data/indenter_3.txt
-0.000329269916710604
print $z append Data/indenter_${count}.txt
print -0.000239228597683037 append Data/indenter_${count}.txt
print -0.000239228597683037 append Data/indenter_3.txt
-0.000239228597683037
print $w append Data/indenter_${count}.txt
print 0.003 append Data/indenter_${count}.txt
print 0.003 append Data/indenter_3.txt
0.003
print $q append Data/indenter_${count}.txt
print 1.001 append Data/indenter_${count}.txt
print 1.001 append Data/indenter_3.txt
1.001

next j
next count
jump SELF start_of_loop_4
variable j loop ${jmax}
variable j loop 5
clear
  using 8 OpenMP thread(s) per MPI task

# DEFINE INITIAL CONDITIONS
# small Peridynamic cylinder hit by projectile
units		si
boundary        s s s
dimension	3
atom_style      peri
atom_modify	map array
neighbor        0.0010 bin

# small target
lattice         sc 0.001
Lattice spacing in x,y,z = 0.001 0.001 0.001
region          target cylinder y 0.0 0.0 0.037 -0.0025 0.0 units box
create_box      1 target
Created orthogonal box = (-0.037 -0.0025 -0.037) to (0.037 0 0.037)
  1 by 1 by 1 MPI processor grid
create_atoms    1 region target
Created 12855 atoms
  Time spent = 0.0030183 secs

pair_style      peri/pmb
pair_coeff      * * 1.6863e22 0.0015001 0.0005 0.25
set             group all density 2200
  12855 settings made for density
set             group all volume 1.25e-10
  12855 settings made for volume
velocity        all set 0.0 0.0 0.0 sum no units box
fix             1 all nve
fix             2 all indent 1e16 sphere v_x v_y v_z v_w units box


print "Iteration:  i = $i , j = $j, k = $k, l = $l "
Iteration:  i = 1 , j = 4, k = 1, l = 1 

print " "
 
print " "
 
print "----------------------------------------------------------------"
----------------------------------------------------------------
print "Iteration ${count} of ${countmax}"
Iteration 4 of 2325
print "----------------------------------------------------------------"
----------------------------------------------------------------
print " "
 

# Reset current timestep
reset_timestep 0

# spherical indenter to shatter target

#q is velocity for indent.txt
variable         q equal "1+(0.001*v_l)"

# indenter radius (w) for indent.txt
variable         w equal "0.0020+(0.001*v_k)"

#disk radius(v_r)
variable r equal 0.037

variable        y0 equal 0.00510
variable        vy equal -100
variable        y equal "v_y0 + v_q*step*dt*v_vy"

#Hit the whole disk
#variable        x equal "cos((PI/2)*v_i/v_imax)*((v_i-1)/v_imax*v_r)"
#variable        z equal "sin((PI/2)*v_j/v_jmax)*((v_j-1)/v_jmax*v_r)"

#Hit the disk reduced 5times compare to disk size
variable        x equal "cos((2*PI)*v_j/v_jmax)*(v_i/v_imax)*v_r*(0.33)"
variable        z equal "sin((2*PI)*v_j/v_jmax)*(v_i/v_imax)*v_r*(0.33)"

compute         1 all damage/atom
timestep        1.0e-7
thermo          100

dump            ${count} all custom 1000 Data/dump_${count}.peri id type x y z c_1
dump            4 all custom 1000 Data/dump_${count}.peri id type x y z c_1
dump            4 all custom 1000 Data/dump_4.peri id type x y z c_1

run             1
Neighbor list info ...
  update every 1 steps, delay 10 steps, check yes
  max neighbors/atom: 2000, page size: 100000
  master list distance cutoff = 0.0025001
  ghost atom cutoff = 0.0025001
  binsize = 0.00125005, bins = 60 3 60
  2 neighbor lists, perpetual/occasional/extra = 1 1 0
  (1) pair peri/pmb, perpetual
      attributes: half, newton on
      pair build: half/bin/atomonly/newton
      stencil: half/bin/3d/newton
      bin: standard
  (2) fix PERI_NEIGH, occasional
      attributes: full, newton on
      pair build: full/bin/atomonly
      stencil: full/bin/3d
      bin: standard
Peridynamic bonds:
  total # of bonds = 185180
  bonds/atom = 14.4053
Per MPI rank memory allocation (min/avg/max) = 22.9 | 22.9 | 22.9 Mbytes
Step Temp E_pair E_mol TotEng Press Volume 
       0            0            0            0            0            0 1.095912e-05 
       1            0            0            0            0            0 1.095912e-05 
Loop time of 0.0130889 on 8 procs for 1 steps with 12855 atoms

99.4% CPU use with 1 MPI tasks x 8 OpenMP threads

MPI task timing breakdown:
Section |  min time  |  avg time  |  max time  |%varavg| %total
---------------------------------------------------------------
Pair    | 0.011812   | 0.011812   | 0.011812   |   0.0 | 90.24
Neigh   | 0          | 0          | 0          |   0.0 |  0.00
Comm    | 2.23e-06   | 2.23e-06   | 2.23e-06   |   0.0 |  0.02
Output  | 0.00033437 | 0.00033437 | 0.00033437 |   0.0 |  2.55
Modify  | 0.00090507 | 0.00090507 | 0.00090507 |   0.0 |  6.91
Other   |            | 3.526e-05  |            |       |  0.27

Nlocal:    12855 ave 12855 max 12855 min
Histogram: 1 0 0 0 0 0 0 0 0 0
Nghost:    0 ave 0 max 0 min
Histogram: 1 0 0 0 0 0 0 0 0 0
Neighs:    337153 ave 337153 max 337153 min
Histogram: 1 0 0 0 0 0 0 0 0 0
FullNghs:  674306 ave 674306 max 674306 min
Histogram: 1 0 0 0 0 0 0 0 0 0

Total # of neighbors = 674306
Ave neighs/atom = 52.4548
Neighbor list builds = 0
Dangerous builds = 0

# SAVE INDENTER
print $x file Data/indenter_${count}.txt
print 0.000125769916710604 file Data/indenter_${count}.txt
print 0.000125769916710604 file Data/indenter_4.txt
0.000125769916710604
print $z append Data/indenter_${count}.txt
print -0.000387080002132128 append Data/indenter_${count}.txt
print -0.000387080002132128 append Data/indenter_4.txt
-0.000387080002132128
print $w append Data/indenter_${count}.txt
print 0.003 append Data/indenter_${count}.txt
print 0.003 append Data/indenter_4.txt
0.003
print $q append Data/indenter_${count}.txt
print 1.001 append Data/indenter_${count}.txt
print 1.001 append Data/indenter_4.txt
1.001

next j
next count
jump SELF start_of_loop_4
variable j loop ${jmax}
variable j loop 5
clear
  using 8 OpenMP thread(s) per MPI task

# DEFINE INITIAL CONDITIONS
# small Peridynamic cylinder hit by projectile
units		si
boundary        s s s
dimension	3
atom_style      peri
atom_modify	map array
neighbor        0.0010 bin

# small target
lattice         sc 0.001
Lattice spacing in x,y,z = 0.001 0.001 0.001
region          target cylinder y 0.0 0.0 0.037 -0.0025 0.0 units box
create_box      1 target
Created orthogonal box = (-0.037 -0.0025 -0.037) to (0.037 0 0.037)
  1 by 1 by 1 MPI processor grid
create_atoms    1 region target
Created 12855 atoms
  Time spent = 0.00271516 secs

pair_style      peri/pmb
pair_coeff      * * 1.6863e22 0.0015001 0.0005 0.25
set             group all density 2200
  12855 settings made for density
set             group all volume 1.25e-10
  12855 settings made for volume
velocity        all set 0.0 0.0 0.0 sum no units box
fix             1 all nve
fix             2 all indent 1e16 sphere v_x v_y v_z v_w units box


print "Iteration:  i = $i , j = $j, k = $k, l = $l "
Iteration:  i = 1 , j = 5, k = 1, l = 1 

print " "
 
print " "
 
print "----------------------------------------------------------------"
----------------------------------------------------------------
print "Iteration ${count} of ${countmax}"
Iteration 5 of 2325
print "----------------------------------------------------------------"
----------------------------------------------------------------
print " "
 

# Reset current timestep
reset_timestep 0

# spherical indenter to shatter target

#q is velocity for indent.txt
variable         q equal "1+(0.001*v_l)"

# indenter radius (w) for indent.txt
variable         w equal "0.0020+(0.001*v_k)"

#disk radius(v_r)
variable r equal 0.037

variable        y0 equal 0.00510
variable        vy equal -100
variable        y equal "v_y0 + v_q*step*dt*v_vy"

#Hit the whole disk
#variable        x equal "cos((PI/2)*v_i/v_imax)*((v_i-1)/v_imax*v_r)"
#variable        z equal "sin((PI/2)*v_j/v_jmax)*((v_j-1)/v_jmax*v_r)"

#Hit the disk reduced 5times compare to disk size
variable        x equal "cos((2*PI)*v_j/v_jmax)*(v_i/v_imax)*v_r*(0.33)"
variable        z equal "sin((2*PI)*v_j/v_jmax)*(v_i/v_imax)*v_r*(0.33)"

compute         1 all damage/atom
timestep        1.0e-7
thermo          100

dump            ${count} all custom 1000 Data/dump_${count}.peri id type x y z c_1
dump            5 all custom 1000 Data/dump_${count}.peri id type x y z c_1
dump            5 all custom 1000 Data/dump_5.peri id type x y z c_1

run             1
Neighbor list info ...
  update every 1 steps, delay 10 steps, check yes
  max neighbors/atom: 2000, page size: 100000
  master list distance cutoff = 0.0025001
  ghost atom cutoff = 0.0025001
  binsize = 0.00125005, bins = 60 3 60
  2 neighbor lists, perpetual/occasional/extra = 1 1 0
  (1) pair peri/pmb, perpetual
      attributes: half, newton on
      pair build: half/bin/atomonly/newton
      stencil: half/bin/3d/newton
      bin: standard
  (2) fix PERI_NEIGH, occasional
      attributes: full, newton on
      pair build: full/bin/atomonly
      stencil: full/bin/3d
      bin: standard
Peridynamic bonds:
  total # of bonds = 185180
  bonds/atom = 14.4053
Per MPI rank memory allocation (min/avg/max) = 22.9 | 22.9 | 22.9 Mbytes
Step Temp E_pair E_mol TotEng Press Volume 
       0            0            0            0            0            0 1.095912e-05 
       1            0            0            0            0            0 1.095912e-05 
Loop time of 0.00981341 on 8 procs for 1 steps with 12855 atoms

99.9% CPU use with 1 MPI tasks x 8 OpenMP threads

MPI task timing breakdown:
Section |  min time  |  avg time  |  max time  |%varavg| %total
---------------------------------------------------------------
Pair    | 0.009554   | 0.009554   | 0.009554   |   0.0 | 97.36
Neigh   | 0          | 0          | 0          |   0.0 |  0.00
Comm    | 9.9698e-07 | 9.9698e-07 | 9.9698e-07 |   0.0 |  0.01
Output  | 4.2736e-05 | 4.2736e-05 | 4.2736e-05 |   0.0 |  0.44
Modify  | 0.00020669 | 0.00020669 | 0.00020669 |   0.0 |  2.11
Other   |            | 8.944e-06  |            |       |  0.09

Nlocal:    12855 ave 12855 max 12855 min
Histogram: 1 0 0 0 0 0 0 0 0 0
Nghost:    0 ave 0 max 0 min
Histogram: 1 0 0 0 0 0 0 0 0 0
Neighs:    337153 ave 337153 max 337153 min
Histogram: 1 0 0 0 0 0 0 0 0 0
FullNghs:  674306 ave 674306 max 674306 min
Histogram: 1 0 0 0 0 0 0 0 0 0

Total # of neighbors = 674306
Ave neighs/atom = 52.4548
Neighbor list builds = 0
Dangerous builds = 0

# SAVE INDENTER
print $x file Data/indenter_${count}.txt
print 0.000407 file Data/indenter_${count}.txt
print 0.000407 file Data/indenter_5.txt
0.000407
print $z append Data/indenter_${count}.txt
print -9.96862494505946e-20 append Data/indenter_${count}.txt
print -9.96862494505946e-20 append Data/indenter_5.txt
-9.96862494505946e-20
print $w append Data/indenter_${count}.txt
print 0.003 append Data/indenter_${count}.txt
print 0.003 append Data/indenter_5.txt
0.003
print $q append Data/indenter_${count}.txt
print 1.001 append Data/indenter_${count}.txt
print 1.001 append Data/indenter_5.txt
1.001

next j
next count
jump SELF start_of_loop_4

next i
jump SELF start_of_loop_3
variable i loop ${imax}
variable i loop 30

variable jmax equal "5*v_i"

print "imax = ${imax}"
imax = 30
print "jmax = ${jmax}"
jmax = 10

# Loop 4
label start_of_loop_4
variable j loop ${jmax}
variable j loop 10
clear
  using 8 OpenMP thread(s) per MPI task

# DEFINE INITIAL CONDITIONS
# small Peridynamic cylinder hit by projectile
units		si
boundary        s s s
dimension	3
atom_style      peri
atom_modify	map array
neighbor        0.0010 bin

# small target
lattice         sc 0.001
Lattice spacing in x,y,z = 0.001 0.001 0.001
region          target cylinder y 0.0 0.0 0.037 -0.0025 0.0 units box
create_box      1 target
Created orthogonal box = (-0.037 -0.0025 -0.037) to (0.037 0 0.037)
  1 by 1 by 1 MPI processor grid
create_atoms    1 region target
Created 12855 atoms
  Time spent = 0.00154188 secs

pair_style      peri/pmb
pair_coeff      * * 1.6863e22 0.0015001 0.0005 0.25
set             group all density 2200
  12855 settings made for density
set             group all volume 1.25e-10
  12855 settings made for volume
velocity        all set 0.0 0.0 0.0 sum no units box
fix             1 all nve
fix             2 all indent 1e16 sphere v_x v_y v_z v_w units box


print "Iteration:  i = $i , j = $j, k = $k, l = $l "
Iteration:  i = 2 , j = 1, k = 1, l = 1 

print " "
 
print " "
 
print "----------------------------------------------------------------"
----------------------------------------------------------------
print "Iteration ${count} of ${countmax}"
Iteration 6 of 2325
print "----------------------------------------------------------------"
----------------------------------------------------------------
print " "
 

# Reset current timestep
reset_timestep 0

# spherical indenter to shatter target

#q is velocity for indent.txt
variable         q equal "1+(0.001*v_l)"

# indenter radius (w) for indent.txt
variable         w equal "0.0020+(0.001*v_k)"

#disk radius(v_r)
variable r equal 0.037

variable        y0 equal 0.00510
variable        vy equal -100
variable        y equal "v_y0 + v_q*step*dt*v_vy"

#Hit the whole disk
#variable        x equal "cos((PI/2)*v_i/v_imax)*((v_i-1)/v_imax*v_r)"
#variable        z equal "sin((PI/2)*v_j/v_jmax)*((v_j-1)/v_jmax*v_r)"

#Hit the disk reduced 5times compare to disk size
variable        x equal "cos((2*PI)*v_j/v_jmax)*(v_i/v_imax)*v_r*(0.33)"
variable        z equal "sin((2*PI)*v_j/v_jmax)*(v_i/v_imax)*v_r*(0.33)"

compute         1 all damage/atom
timestep        1.0e-7
thermo          100

dump            ${count} all custom 1000 Data/dump_${count}.peri id type x y z c_1
dump            6 all custom 1000 Data/dump_${count}.peri id type x y z c_1
dump            6 all custom 1000 Data/dump_6.peri id type x y z c_1

run             1
Neighbor list info ...
  update every 1 steps, delay 10 steps, check yes
  max neighbors/atom: 2000, page size: 100000
  master list distance cutoff = 0.0025001
  ghost atom cutoff = 0.0025001
  binsize = 0.00125005, bins = 60 3 60
  2 neighbor lists, perpetual/occasional/extra = 1 1 0
  (1) pair peri/pmb, perpetual
      attributes: half, newton on
      pair build: half/bin/atomonly/newton
      stencil: half/bin/3d/newton
      bin: standard
  (2) fix PERI_NEIGH, occasional
      attributes: full, newton on
      pair build: full/bin/atomonly
      stencil: full/bin/3d
      bin: standard
Peridynamic bonds:
  total # of bonds = 185180
  bonds/atom = 14.4053
Per MPI rank memory allocation (min/avg/max) = 22.9 | 22.9 | 22.9 Mbytes
Step Temp E_pair E_mol TotEng Press Volume 
       0            0            0            0            0            0 1.095912e-05 
       1            0            0            0            0            0 1.095912e-05 
Loop time of 0.00976912 on 8 procs for 1 steps with 12855 atoms

99.9% CPU use with 1 MPI tasks x 8 OpenMP threads

MPI task timing breakdown:
Section |  min time  |  avg time  |  max time  |%varavg| %total
---------------------------------------------------------------
Pair    | 0.0095129  | 0.0095129  | 0.0095129  |   0.0 | 97.38
Neigh   | 0          | 0          | 0          |   0.0 |  0.00
Comm    | 1.108e-06  | 1.108e-06  | 1.108e-06  |   0.0 |  0.01
Output  | 4.2528e-05 | 4.2528e-05 | 4.2528e-05 |   0.0 |  0.44
Modify  | 0.00020379 | 0.00020379 | 0.00020379 |   0.0 |  2.09
Other   |            | 8.825e-06  |            |       |  0.09

Nlocal:    12855 ave 12855 max 12855 min
Histogram: 1 0 0 0 0 0 0 0 0 0
Nghost:    0 ave 0 max 0 min
Histogram: 1 0 0 0 0 0 0 0 0 0
Neighs:    337153 ave 337153 max 337153 min
Histogram: 1 0 0 0 0 0 0 0 0 0
FullNghs:  674306 ave 674306 max 674306 min
Histogram: 1 0 0 0 0 0 0 0 0 0

Total # of neighbors = 674306
Ave neighs/atom = 52.4548
Neighbor list builds = 0
Dangerous builds = 0

# SAVE INDENTER
print $x file Data/indenter_${count}.txt
print 0.000658539833421207 file Data/indenter_${count}.txt
print 0.000658539833421207 file Data/indenter_6.txt
0.000658539833421207
print $z append Data/indenter_${count}.txt
print 0.000478457195366073 append Data/indenter_${count}.txt
print 0.000478457195366073 append Data/indenter_6.txt
0.000478457195366073
print $w append Data/indenter_${count}.txt
print 0.003 append Data/indenter_${count}.txt
print 0.003 append Data/indenter_6.txt
0.003
print $q append Data/indenter_${count}.txt
print 1.001 append Data/indenter_${count}.txt
print 1.001 append Data/indenter_6.txt
1.001

next j
next count
jump SELF start_of_loop_4
variable j loop ${jmax}
variable j loop 10
clear
  using 8 OpenMP thread(s) per MPI task

# DEFINE INITIAL CONDITIONS
# small Peridynamic cylinder hit by projectile
units		si
boundary        s s s
dimension	3
atom_style      peri
atom_modify	map array
neighbor        0.0010 bin

# small target
lattice         sc 0.001
Lattice spacing in x,y,z = 0.001 0.001 0.001
region          target cylinder y 0.0 0.0 0.037 -0.0025 0.0 units box
create_box      1 target
Created orthogonal box = (-0.037 -0.0025 -0.037) to (0.037 0 0.037)
  1 by 1 by 1 MPI processor grid
create_atoms    1 region target
Created 12855 atoms
  Time spent = 0.00152144 secs

pair_style      peri/pmb
pair_coeff      * * 1.6863e22 0.0015001 0.0005 0.25
set             group all density 2200
  12855 settings made for density
set             group all volume 1.25e-10
  12855 settings made for volume
velocity        all set 0.0 0.0 0.0 sum no units box
fix             1 all nve
fix             2 all indent 1e16 sphere v_x v_y v_z v_w units box


print "Iteration:  i = $i , j = $j, k = $k, l = $l "
Iteration:  i = 2 , j = 2, k = 1, l = 1 

print " "
 
print " "
 
print "----------------------------------------------------------------"
----------------------------------------------------------------
print "Iteration ${count} of ${countmax}"
Iteration 7 of 2325
print "----------------------------------------------------------------"
----------------------------------------------------------------
print " "
 

# Reset current timestep
reset_timestep 0

# spherical indenter to shatter target

#q is velocity for indent.txt
variable         q equal "1+(0.001*v_l)"

# indenter radius (w) for indent.txt
variable         w equal "0.0020+(0.001*v_k)"

#disk radius(v_r)
variable r equal 0.037

variable        y0 equal 0.00510
variable        vy equal -100
variable        y equal "v_y0 + v_q*step*dt*v_vy"

#Hit the whole disk
#variable        x equal "cos((PI/2)*v_i/v_imax)*((v_i-1)/v_imax*v_r)"
#variable        z equal "sin((PI/2)*v_j/v_jmax)*((v_j-1)/v_jmax*v_r)"

#Hit the disk reduced 5times compare to disk size
variable        x equal "cos((2*PI)*v_j/v_jmax)*(v_i/v_imax)*v_r*(0.33)"
variable        z equal "sin((2*PI)*v_j/v_jmax)*(v_i/v_imax)*v_r*(0.33)"

compute         1 all damage/atom
timestep        1.0e-7
thermo          100

dump            ${count} all custom 1000 Data/dump_${count}.peri id type x y z c_1
dump            7 all custom 1000 Data/dump_${count}.peri id type x y z c_1
dump            7 all custom 1000 Data/dump_7.peri id type x y z c_1

run             1
Neighbor list info ...
  update every 1 steps, delay 10 steps, check yes
  max neighbors/atom: 2000, page size: 100000
  master list distance cutoff = 0.0025001
  ghost atom cutoff = 0.0025001
  binsize = 0.00125005, bins = 60 3 60
  2 neighbor lists, perpetual/occasional/extra = 1 1 0
  (1) pair peri/pmb, perpetual
      attributes: half, newton on
      pair build: half/bin/atomonly/newton
      stencil: half/bin/3d/newton
      bin: standard
  (2) fix PERI_NEIGH, occasional
      attributes: full, newton on
      pair build: full/bin/atomonly
      stencil: full/bin/3d
      bin: standard
Peridynamic bonds:
  total # of bonds = 185180
  bonds/atom = 14.4053
Per MPI rank memory allocation (min/avg/max) = 22.9 | 22.9 | 22.9 Mbytes
Step Temp E_pair E_mol TotEng Press Volume 
       0            0            0            0            0            0 1.095912e-05 
       1            0            0            0            0            0 1.095912e-05 
Loop time of 0.00978072 on 8 procs for 1 steps with 12855 atoms

99.9% CPU use with 1 MPI tasks x 8 OpenMP threads

MPI task timing breakdown:
Section |  min time  |  avg time  |  max time  |%varavg| %total
---------------------------------------------------------------
Pair    | 0.0095159  | 0.0095159  | 0.0095159  |   0.0 | 97.29
Neigh   | 0          | 0          | 0          |   0.0 |  0.00
Comm    | 6.2399e-07 | 6.2399e-07 | 6.2399e-07 |   0.0 |  0.01
Output  | 4.305e-05  | 4.305e-05  | 4.305e-05  |   0.0 |  0.44
Modify  | 0.00021151 | 0.00021151 | 0.00021151 |   0.0 |  2.16
Other   |            | 9.631e-06  |            |       |  0.10

Nlocal:    12855 ave 12855 max 12855 min
Histogram: 1 0 0 0 0 0 0 0 0 0
Nghost:    0 ave 0 max 0 min
Histogram: 1 0 0 0 0 0 0 0 0 0
Neighs:    337153 ave 337153 max 337153 min
Histogram: 1 0 0 0 0 0 0 0 0 0
FullNghs:  674306 ave 674306 max 674306 min
Histogram: 1 0 0 0 0 0 0 0 0 0

Total # of neighbors = 674306
Ave neighs/atom = 52.4548
Neighbor list builds = 0
Dangerous builds = 0

# SAVE INDENTER
print $x file Data/indenter_${count}.txt
print 0.000251539833421207 file Data/indenter_${count}.txt
print 0.000251539833421207 file Data/indenter_7.txt
0.000251539833421207
print $z append Data/indenter_${count}.txt
print 0.000774160004264255 append Data/indenter_${count}.txt
print 0.000774160004264255 append Data/indenter_7.txt
0.000774160004264255
print $w append Data/indenter_${count}.txt
print 0.003 append Data/indenter_${count}.txt
print 0.003 append Data/indenter_7.txt
0.003
print $q append Data/indenter_${count}.txt
print 1.001 append Data/indenter_${count}.txt
print 1.001 append Data/indenter_7.txt
1.001

next j
next count
jump SELF start_of_loop_4
variable j loop ${jmax}
variable j loop 10
clear
  using 8 OpenMP thread(s) per MPI task

# DEFINE INITIAL CONDITIONS
# small Peridynamic cylinder hit by projectile
units		si
boundary        s s s
dimension	3
atom_style      peri
atom_modify	map array
neighbor        0.0010 bin

# small target
lattice         sc 0.001
Lattice spacing in x,y,z = 0.001 0.001 0.001
region          target cylinder y 0.0 0.0 0.037 -0.0025 0.0 units box
create_box      1 target
Created orthogonal box = (-0.037 -0.0025 -0.037) to (0.037 0 0.037)
  1 by 1 by 1 MPI processor grid
create_atoms    1 region target
Created 12855 atoms
  Time spent = 0.00148008 secs

pair_style      peri/pmb
pair_coeff      * * 1.6863e22 0.0015001 0.0005 0.25
set             group all density 2200
  12855 settings made for density
set             group all volume 1.25e-10
  12855 settings made for volume
velocity        all set 0.0 0.0 0.0 sum no units box
fix             1 all nve
fix             2 all indent 1e16 sphere v_x v_y v_z v_w units box


print "Iteration:  i = $i , j = $j, k = $k, l = $l "
Iteration:  i = 2 , j = 3, k = 1, l = 1 

print " "
 
print " "
 
print "----------------------------------------------------------------"
----------------------------------------------------------------
print "Iteration ${count} of ${countmax}"
Iteration 8 of 2325
print "----------------------------------------------------------------"
----------------------------------------------------------------
print " "
 

# Reset current timestep
reset_timestep 0

# spherical indenter to shatter target

#q is velocity for indent.txt
variable         q equal "1+(0.001*v_l)"

# indenter radius (w) for indent.txt
variable         w equal "0.0020+(0.001*v_k)"

#disk radius(v_r)
variable r equal 0.037

variable        y0 equal 0.00510
variable        vy equal -100
variable        y equal "v_y0 + v_q*step*dt*v_vy"

#Hit the whole disk
#variable        x equal "cos((PI/2)*v_i/v_imax)*((v_i-1)/v_imax*v_r)"
#variable        z equal "sin((PI/2)*v_j/v_jmax)*((v_j-1)/v_jmax*v_r)"

#Hit the disk reduced 5times compare to disk size
variable        x equal "cos((2*PI)*v_j/v_jmax)*(v_i/v_imax)*v_r*(0.33)"
variable        z equal "sin((2*PI)*v_j/v_jmax)*(v_i/v_imax)*v_r*(0.33)"

compute         1 all damage/atom
timestep        1.0e-7
thermo          100

dump            ${count} all custom 1000 Data/dump_${count}.peri id type x y z c_1
dump            8 all custom 1000 Data/dump_${count}.peri id type x y z c_1
dump            8 all custom 1000 Data/dump_8.peri id type x y z c_1

run             1
Neighbor list info ...
  update every 1 steps, delay 10 steps, check yes
  max neighbors/atom: 2000, page size: 100000
  master list distance cutoff = 0.0025001
  ghost atom cutoff = 0.0025001
  binsize = 0.00125005, bins = 60 3 60
  2 neighbor lists, perpetual/occasional/extra = 1 1 0
  (1) pair peri/pmb, perpetual
      attributes: half, newton on
      pair build: half/bin/atomonly/newton
      stencil: half/bin/3d/newton
      bin: standard
  (2) fix PERI_NEIGH, occasional
      attributes: full, newton on
      pair build: full/bin/atomonly
      stencil: full/bin/3d
      bin: standard
Peridynamic bonds:
  total # of bonds = 185180
  bonds/atom = 14.4053
Per MPI rank memory allocation (min/avg/max) = 22.9 | 22.9 | 22.9 Mbytes
Step Temp E_pair E_mol TotEng Press Volume 
       0            0            0            0            0            0 1.095912e-05 
       1            0            0            0            0            0 1.095912e-05 
Loop time of 0.00973037 on 8 procs for 1 steps with 12855 atoms

99.9% CPU use with 1 MPI tasks x 8 OpenMP threads

MPI task timing breakdown:
Section |  min time  |  avg time  |  max time  |%varavg| %total
---------------------------------------------------------------
Pair    | 0.0094762  | 0.0094762  | 0.0094762  |   0.0 | 97.39
Neigh   | 0          | 0          | 0          |   0.0 |  0.00
Comm    | 9.5193e-07 | 9.5193e-07 | 9.5193e-07 |   0.0 |  0.01
Output  | 4.233e-05  | 4.233e-05  | 4.233e-05  |   0.0 |  0.44
Modify  | 0.0002016  | 0.0002016  | 0.0002016  |   0.0 |  2.07
Other   |            | 9.273e-06  |            |       |  0.10

Nlocal:    12855 ave 12855 max 12855 min
Histogram: 1 0 0 0 0 0 0 0 0 0
Nghost:    0 ave 0 max 0 min
Histogram: 1 0 0 0 0 0 0 0 0 0
Neighs:    337153 ave 337153 max 337153 min
Histogram: 1 0 0 0 0 0 0 0 0 0
FullNghs:  674306 ave 674306 max 674306 min
Histogram: 1 0 0 0 0 0 0 0 0 0

Total # of neighbors = 674306
Ave neighs/atom = 52.4548
Neighbor list builds = 0
Dangerous builds = 0

# SAVE INDENTER
print $x file Data/indenter_${count}.txt
print -0.000251539833421207 file Data/indenter_${count}.txt
print -0.000251539833421207 file Data/indenter_8.txt
-0.000251539833421207
print $z append Data/indenter_${count}.txt
print 0.000774160004264255 append Data/indenter_${count}.txt
print 0.000774160004264255 append Data/indenter_8.txt
0.000774160004264255
print $w append Data/indenter_${count}.txt
print 0.003 append Data/indenter_${count}.txt
print 0.003 append Data/indenter_8.txt
0.003
print $q append Data/indenter_${count}.txt
print 1.001 append Data/indenter_${count}.txt
print 1.001 append Data/indenter_8.txt
1.001

next j
next count
jump SELF start_of_loop_4
variable j loop ${jmax}
variable j loop 10
clear
  using 8 OpenMP thread(s) per MPI task

# DEFINE INITIAL CONDITIONS
# small Peridynamic cylinder hit by projectile
units		si
boundary        s s s
dimension	3
atom_style      peri
atom_modify	map array
neighbor        0.0010 bin

# small target
lattice         sc 0.001
Lattice spacing in x,y,z = 0.001 0.001 0.001
region          target cylinder y 0.0 0.0 0.037 -0.0025 0.0 units box
create_box      1 target
Created orthogonal box = (-0.037 -0.0025 -0.037) to (0.037 0 0.037)
  1 by 1 by 1 MPI processor grid
create_atoms    1 region target
Created 12855 atoms
  Time spent = 0.00154273 secs

pair_style      peri/pmb
pair_coeff      * * 1.6863e22 0.0015001 0.0005 0.25
set             group all density 2200
  12855 settings made for density
set             group all volume 1.25e-10
  12855 settings made for volume
velocity        all set 0.0 0.0 0.0 sum no units box
fix             1 all nve
fix             2 all indent 1e16 sphere v_x v_y v_z v_w units box


print "Iteration:  i = $i , j = $j, k = $k, l = $l "
Iteration:  i = 2 , j = 4, k = 1, l = 1 

print " "
 
print " "
 
print "----------------------------------------------------------------"
----------------------------------------------------------------
print "Iteration ${count} of ${countmax}"
Iteration 9 of 2325
print "----------------------------------------------------------------"
----------------------------------------------------------------
print " "
 

# Reset current timestep
reset_timestep 0

# spherical indenter to shatter target

#q is velocity for indent.txt
variable         q equal "1+(0.001*v_l)"

# indenter radius (w) for indent.txt
variable         w equal "0.0020+(0.001*v_k)"

#disk radius(v_r)
variable r equal 0.037

variable        y0 equal 0.00510
variable        vy equal -100
variable        y equal "v_y0 + v_q*step*dt*v_vy"

#Hit the whole disk
#variable        x equal "cos((PI/2)*v_i/v_imax)*((v_i-1)/v_imax*v_r)"
#variable        z equal "sin((PI/2)*v_j/v_jmax)*((v_j-1)/v_jmax*v_r)"

#Hit the disk reduced 5times compare to disk size
variable        x equal "cos((2*PI)*v_j/v_jmax)*(v_i/v_imax)*v_r*(0.33)"
variable        z equal "sin((2*PI)*v_j/v_jmax)*(v_i/v_imax)*v_r*(0.33)"

compute         1 all damage/atom
timestep        1.0e-7
thermo          100

dump            ${count} all custom 1000 Data/dump_${count}.peri id type x y z c_1
dump            9 all custom 1000 Data/dump_${count}.peri id type x y z c_1
dump            9 all custom 1000 Data/dump_9.peri id type x y z c_1

run             1
Neighbor list info ...
  update every 1 steps, delay 10 steps, check yes
  max neighbors/atom: 2000, page size: 100000
  master list distance cutoff = 0.0025001
  ghost atom cutoff = 0.0025001
  binsize = 0.00125005, bins = 60 3 60
  2 neighbor lists, perpetual/occasional/extra = 1 1 0
  (1) pair peri/pmb, perpetual
      attributes: half, newton on
      pair build: half/bin/atomonly/newton
      stencil: half/bin/3d/newton
      bin: standard
  (2) fix PERI_NEIGH, occasional
      attributes: full, newton on
      pair build: full/bin/atomonly
      stencil: full/bin/3d
      bin: standard
Peridynamic bonds:
  total # of bonds = 185180
  bonds/atom = 14.4053
Per MPI rank memory allocation (min/avg/max) = 22.9 | 22.9 | 22.9 Mbytes
Step Temp E_pair E_mol TotEng Press Volume 
       0            0            0            0            0            0 1.095912e-05 
       1            0            0            0            0            0 1.095912e-05 
Loop time of 0.0097208 on 8 procs for 1 steps with 12855 atoms

99.9% CPU use with 1 MPI tasks x 8 OpenMP threads

MPI task timing breakdown:
Section |  min time  |  avg time  |  max time  |%varavg| %total
---------------------------------------------------------------
Pair    | 0.0094537  | 0.0094537  | 0.0094537  |   0.0 | 97.25
Neigh   | 0          | 0          | 0          |   0.0 |  0.00
Comm    | 7.0594e-07 | 7.0594e-07 | 7.0594e-07 |   0.0 |  0.01
Output  | 4.295e-05  | 4.295e-05  | 4.295e-05  |   0.0 |  0.44
Modify  | 0.00021448 | 0.00021448 | 0.00021448 |   0.0 |  2.21
Other   |            | 8.99e-06   |            |       |  0.09

Nlocal:    12855 ave 12855 max 12855 min
Histogram: 1 0 0 0 0 0 0 0 0 0
Nghost:    0 ave 0 max 0 min
Histogram: 1 0 0 0 0 0 0 0 0 0
Neighs:    337153 ave 337153 max 337153 min
Histogram: 1 0 0 0 0 0 0 0 0 0
FullNghs:  674306 ave 674306 max 674306 min
Histogram: 1 0 0 0 0 0 0 0 0 0

Total # of neighbors = 674306
Ave neighs/atom = 52.4548
Neighbor list builds = 0
Dangerous builds = 0

# SAVE INDENTER
print $x file Data/indenter_${count}.txt
print -0.000658539833421207 file Data/indenter_${count}.txt
print -0.000658539833421207 file Data/indenter_9.txt
-0.000658539833421207
print $z append Data/indenter_${count}.txt
print 0.000478457195366073 append Data/indenter_${count}.txt
print 0.000478457195366073 append Data/indenter_9.txt
0.000478457195366073
print $w append Data/indenter_${count}.txt
print 0.003 append Data/indenter_${count}.txt
print 0.003 append Data/indenter_9.txt
0.003
print $q append Data/indenter_${count}.txt
print 1.001 append Data/indenter_${count}.txt
print 1.001 append Data/indenter_9.txt
1.001

next j
next count
jump SELF start_of_loop_4
variable j loop ${jmax}
variable j loop 10
clear
  using 8 OpenMP thread(s) per MPI task

# DEFINE INITIAL CONDITIONS
# small Peridynamic cylinder hit by projectile
units		si
boundary        s s s
dimension	3
atom_style      peri
atom_modify	map array
neighbor        0.0010 bin

# small target
lattice         sc 0.001
Lattice spacing in x,y,z = 0.001 0.001 0.001
region          target cylinder y 0.0 0.0 0.037 -0.0025 0.0 units box
create_box      1 target
Created orthogonal box = (-0.037 -0.0025 -0.037) to (0.037 0 0.037)
  1 by 1 by 1 MPI processor grid
create_atoms    1 region target
Created 12855 atoms
  Time spent = 0.00148204 secs

pair_style      peri/pmb
pair_coeff      * * 1.6863e22 0.0015001 0.0005 0.25
set             group all density 2200
  12855 settings made for density
set             group all volume 1.25e-10
  12855 settings made for volume
velocity        all set 0.0 0.0 0.0 sum no units box
fix             1 all nve
fix             2 all indent 1e16 sphere v_x v_y v_z v_w units box


print "Iteration:  i = $i , j = $j, k = $k, l = $l "
Iteration:  i = 2 , j = 5, k = 1, l = 1 

print " "
 
print " "
 
print "----------------------------------------------------------------"
----------------------------------------------------------------
print "Iteration ${count} of ${countmax}"
Iteration 10 of 2325
print "----------------------------------------------------------------"
----------------------------------------------------------------
print " "
 

# Reset current timestep
reset_timestep 0

# spherical indenter to shatter target

#q is velocity for indent.txt
variable         q equal "1+(0.001*v_l)"

# indenter radius (w) for indent.txt
variable         w equal "0.0020+(0.001*v_k)"

#disk radius(v_r)
variable r equal 0.037

variable        y0 equal 0.00510
variable        vy equal -100
variable        y equal "v_y0 + v_q*step*dt*v_vy"

#Hit the whole disk
#variable        x equal "cos((PI/2)*v_i/v_imax)*((v_i-1)/v_imax*v_r)"
#variable        z equal "sin((PI/2)*v_j/v_jmax)*((v_j-1)/v_jmax*v_r)"

#Hit the disk reduced 5times compare to disk size
variable        x equal "cos((2*PI)*v_j/v_jmax)*(v_i/v_imax)*v_r*(0.33)"
variable        z equal "sin((2*PI)*v_j/v_jmax)*(v_i/v_imax)*v_r*(0.33)"

compute         1 all damage/atom
timestep        1.0e-7
thermo          100

dump            ${count} all custom 1000 Data/dump_${count}.peri id type x y z c_1
dump            10 all custom 1000 Data/dump_${count}.peri id type x y z c_1
dump            10 all custom 1000 Data/dump_10.peri id type x y z c_1

run             1
Neighbor list info ...
  update every 1 steps, delay 10 steps, check yes
  max neighbors/atom: 2000, page size: 100000
  master list distance cutoff = 0.0025001
  ghost atom cutoff = 0.0025001
  binsize = 0.00125005, bins = 60 3 60
  2 neighbor lists, perpetual/occasional/extra = 1 1 0
  (1) pair peri/pmb, perpetual
      attributes: half, newton on
      pair build: half/bin/atomonly/newton
      stencil: half/bin/3d/newton
      bin: standard
  (2) fix PERI_NEIGH, occasional
      attributes: full, newton on
      pair build: full/bin/atomonly
      stencil: full/bin/3d
      bin: standard
Peridynamic bonds:
  total # of bonds = 185180
  bonds/atom = 14.4053
Per MPI rank memory allocation (min/avg/max) = 22.9 | 22.9 | 22.9 Mbytes
Step Temp E_pair E_mol TotEng Press Volume 
       0            0            0            0            0            0 1.095912e-05 
       1            0            0            0            0            0 1.095912e-05 
Loop time of 0.00979764 on 8 procs for 1 steps with 12855 atoms

99.9% CPU use with 1 MPI tasks x 8 OpenMP threads

MPI task timing breakdown:
Section |  min time  |  avg time  |  max time  |%varavg| %total
---------------------------------------------------------------
Pair    | 0.0094669  | 0.0094669  | 0.0094669  |   0.0 | 96.62
Neigh   | 0          | 0          | 0          |   0.0 |  0.00
Comm    | 6.5798e-07 | 6.5798e-07 | 6.5798e-07 |   0.0 |  0.01
Output  | 4.3546e-05 | 4.3546e-05 | 4.3546e-05 |   0.0 |  0.44
Modify  | 0.00027713 | 0.00027713 | 0.00027713 |   0.0 |  2.83
Other   |            | 9.438e-06  |            |       |  0.10

Nlocal:    12855 ave 12855 max 12855 min
Histogram: 1 0 0 0 0 0 0 0 0 0
Nghost:    0 ave 0 max 0 min
Histogram: 1 0 0 0 0 0 0 0 0 0
Neighs:    337153 ave 337153 max 337153 min
Histogram: 1 0 0 0 0 0 0 0 0 0
FullNghs:  674306 ave 674306 max 674306 min
Histogram: 1 0 0 0 0 0 0 0 0 0

Total # of neighbors = 674306
Ave neighs/atom = 52.4548
Neighbor list builds = 0
Dangerous builds = 0

# SAVE INDENTER
print $x file Data/indenter_${count}.txt
print -0.000814 file Data/indenter_${count}.txt
print -0.000814 file Data/indenter_10.txt
-0.000814
print $z append Data/indenter_${count}.txt
print 9.96862494505946e-20 append Data/indenter_${count}.txt
print 9.96862494505946e-20 append Data/indenter_10.txt
9.96862494505946e-20
print $w append Data/indenter_${count}.txt
print 0.003 append Data/indenter_${count}.txt
print 0.003 append Data/indenter_10.txt
0.003
print $q append Data/indenter_${count}.txt
print 1.001 append Data/indenter_${count}.txt
print 1.001 append Data/indenter_10.txt
1.001

next j
next count
jump SELF start_of_loop_4
variable j loop ${jmax}
variable j loop 10
clear
  using 8 OpenMP thread(s) per MPI task

# DEFINE INITIAL CONDITIONS
# small Peridynamic cylinder hit by projectile
units		si
boundary        s s s
dimension	3
atom_style      peri
atom_modify	map array
neighbor        0.0010 bin

# small target
lattice         sc 0.001
Lattice spacing in x,y,z = 0.001 0.001 0.001
region          target cylinder y 0.0 0.0 0.037 -0.0025 0.0 units box
create_box      1 target
Created orthogonal box = (-0.037 -0.0025 -0.037) to (0.037 0 0.037)
  1 by 1 by 1 MPI processor grid
create_atoms    1 region target
Created 12855 atoms
  Time spent = 0.00209531 secs

pair_style      peri/pmb
pair_coeff      * * 1.6863e22 0.0015001 0.0005 0.25
set             group all density 2200
  12855 settings made for density
set             group all volume 1.25e-10
  12855 settings made for volume
velocity        all set 0.0 0.0 0.0 sum no units box
fix             1 all nve
fix             2 all indent 1e16 sphere v_x v_y v_z v_w units box


print "Iteration:  i = $i , j = $j, k = $k, l = $l "
Iteration:  i = 2 , j = 6, k = 1, l = 1 

print " "
 
print " "
 
print "----------------------------------------------------------------"
----------------------------------------------------------------
print "Iteration ${count} of ${countmax}"
Iteration 11 of 2325
print "----------------------------------------------------------------"
----------------------------------------------------------------
print " "
 

# Reset current timestep
reset_timestep 0

# spherical indenter to shatter target

#q is velocity for indent.txt
variable         q equal "1+(0.001*v_l)"

# indenter radius (w) for indent.txt
variable         w equal "0.0020+(0.001*v_k)"

#disk radius(v_r)
variable r equal 0.037

variable        y0 equal 0.00510
variable        vy equal -100
variable        y equal "v_y0 + v_q*step*dt*v_vy"

#Hit the whole disk
#variable        x equal "cos((PI/2)*v_i/v_imax)*((v_i-1)/v_imax*v_r)"
#variable        z equal "sin((PI/2)*v_j/v_jmax)*((v_j-1)/v_jmax*v_r)"

#Hit the disk reduced 5times compare to disk size
variable        x equal "cos((2*PI)*v_j/v_jmax)*(v_i/v_imax)*v_r*(0.33)"
variable        z equal "sin((2*PI)*v_j/v_jmax)*(v_i/v_imax)*v_r*(0.33)"

compute         1 all damage/atom
timestep        1.0e-7
thermo          100

dump            ${count} all custom 1000 Data/dump_${count}.peri id type x y z c_1
dump            11 all custom 1000 Data/dump_${count}.peri id type x y z c_1
dump            11 all custom 1000 Data/dump_11.peri id type x y z c_1

run             1
Neighbor list info ...
  update every 1 steps, delay 10 steps, check yes
  max neighbors/atom: 2000, page size: 100000
  master list distance cutoff = 0.0025001
  ghost atom cutoff = 0.0025001
  binsize = 0.00125005, bins = 60 3 60
  2 neighbor lists, perpetual/occasional/extra = 1 1 0
  (1) pair peri/pmb, perpetual
      attributes: half, newton on
      pair build: half/bin/atomonly/newton
      stencil: half/bin/3d/newton
      bin: standard
  (2) fix PERI_NEIGH, occasional
      attributes: full, newton on
      pair build: full/bin/atomonly
      stencil: full/bin/3d
      bin: standard
Peridynamic bonds:
  total # of bonds = 185180
  bonds/atom = 14.4053
Per MPI rank memory allocation (min/avg/max) = 22.9 | 22.9 | 22.9 Mbytes
Step Temp E_pair E_mol TotEng Press Volume 
       0            0            0            0            0            0 1.095912e-05 
       1            0            0            0            0            0 1.095912e-05 
Loop time of 0.0096537 on 8 procs for 1 steps with 12855 atoms

99.9% CPU use with 1 MPI tasks x 8 OpenMP threads

MPI task timing breakdown:
Section |  min time  |  avg time  |  max time  |%varavg| %total
---------------------------------------------------------------
Pair    | 0.0093677  | 0.0093677  | 0.0093677  |   0.0 | 97.04
Neigh   | 0          | 0          | 0          |   0.0 |  0.00
Comm    | 7.2509e-07 | 7.2509e-07 | 7.2509e-07 |   0.0 |  0.01
Output  | 4.2657e-05 | 4.2657e-05 | 4.2657e-05 |   0.0 |  0.44
Modify  | 0.00022965 | 0.00022965 | 0.00022965 |   0.0 |  2.38
Other   |            | 1.3e-05    |            |       |  0.13

Nlocal:    12855 ave 12855 max 12855 min
Histogram: 1 0 0 0 0 0 0 0 0 0
Nghost:    0 ave 0 max 0 min
Histogram: 1 0 0 0 0 0 0 0 0 0
Neighs:    337153 ave 337153 max 337153 min
Histogram: 1 0 0 0 0 0 0 0 0 0
FullNghs:  674306 ave 674306 max 674306 min
Histogram: 1 0 0 0 0 0 0 0 0 0

Total # of neighbors = 674306
Ave neighs/atom = 52.4548
Neighbor list builds = 0
Dangerous builds = 0

# SAVE INDENTER
print $x file Data/indenter_${count}.txt
print -0.000658539833421207 file Data/indenter_${count}.txt
print -0.000658539833421207 file Data/indenter_11.txt
-0.000658539833421207
print $z append Data/indenter_${count}.txt
print -0.000478457195366073 append Data/indenter_${count}.txt
print -0.000478457195366073 append Data/indenter_11.txt
-0.000478457195366073
print $w append Data/indenter_${count}.txt
print 0.003 append Data/indenter_${count}.txt
print 0.003 append Data/indenter_11.txt
0.003
print $q append Data/indenter_${count}.txt
print 1.001 append Data/indenter_${count}.txt
print 1.001 append Data/indenter_11.txt
1.001

next j
next count
jump SELF start_of_loop_4
variable j loop ${jmax}
variable j loop 10
clear
  using 8 OpenMP thread(s) per MPI task

# DEFINE INITIAL CONDITIONS
# small Peridynamic cylinder hit by projectile
units		si
boundary        s s s
dimension	3
atom_style      peri
atom_modify	map array
neighbor        0.0010 bin

# small target
lattice         sc 0.001
Lattice spacing in x,y,z = 0.001 0.001 0.001
region          target cylinder y 0.0 0.0 0.037 -0.0025 0.0 units box
create_box      1 target
Created orthogonal box = (-0.037 -0.0025 -0.037) to (0.037 0 0.037)
  1 by 1 by 1 MPI processor grid
create_atoms    1 region target
Created 12855 atoms
  Time spent = 0.00174292 secs

pair_style      peri/pmb
pair_coeff      * * 1.6863e22 0.0015001 0.0005 0.25
set             group all density 2200
  12855 settings made for density
set             group all volume 1.25e-10
  12855 settings made for volume
velocity        all set 0.0 0.0 0.0 sum no units box
fix             1 all nve
fix             2 all indent 1e16 sphere v_x v_y v_z v_w units box


print "Iteration:  i = $i , j = $j, k = $k, l = $l "
Iteration:  i = 2 , j = 7, k = 1, l = 1 

print " "
 
print " "
 
print "----------------------------------------------------------------"
----------------------------------------------------------------
print "Iteration ${count} of ${countmax}"
Iteration 12 of 2325
print "----------------------------------------------------------------"
----------------------------------------------------------------
print " "
 

# Reset current timestep
reset_timestep 0

# spherical indenter to shatter target

#q is velocity for indent.txt
variable         q equal "1+(0.001*v_l)"

# indenter radius (w) for indent.txt
variable         w equal "0.0020+(0.001*v_k)"

#disk radius(v_r)
variable r equal 0.037

variable        y0 equal 0.00510
variable        vy equal -100
variable        y equal "v_y0 + v_q*step*dt*v_vy"

#Hit the whole disk
#variable        x equal "cos((PI/2)*v_i/v_imax)*((v_i-1)/v_imax*v_r)"
#variable        z equal "sin((PI/2)*v_j/v_jmax)*((v_j-1)/v_jmax*v_r)"

#Hit the disk reduced 5times compare to disk size
variable        x equal "cos((2*PI)*v_j/v_jmax)*(v_i/v_imax)*v_r*(0.33)"
variable        z equal "sin((2*PI)*v_j/v_jmax)*(v_i/v_imax)*v_r*(0.33)"

compute         1 all damage/atom
timestep        1.0e-7
thermo          100

dump            ${count} all custom 1000 Data/dump_${count}.peri id type x y z c_1
dump            12 all custom 1000 Data/dump_${count}.peri id type x y z c_1
dump            12 all custom 1000 Data/dump_12.peri id type x y z c_1

run             1
Neighbor list info ...
  update every 1 steps, delay 10 steps, check yes
  max neighbors/atom: 2000, page size: 100000
  master list distance cutoff = 0.0025001
  ghost atom cutoff = 0.0025001
  binsize = 0.00125005, bins = 60 3 60
  2 neighbor lists, perpetual/occasional/extra = 1 1 0
  (1) pair peri/pmb, perpetual
      attributes: half, newton on
      pair build: half/bin/atomonly/newton
      stencil: half/bin/3d/newton
      bin: standard
  (2) fix PERI_NEIGH, occasional
      attributes: full, newton on
      pair build: full/bin/atomonly
      stencil: full/bin/3d
      bin: standard
Peridynamic bonds:
  total # of bonds = 185180
  bonds/atom = 14.4053
Per MPI rank memory allocation (min/avg/max) = 22.9 | 22.9 | 22.9 Mbytes
Step Temp E_pair E_mol TotEng Press Volume 
       0            0            0            0            0            0 1.095912e-05 
       1            0            0            0            0            0 1.095912e-05 
Loop time of 0.0129824 on 8 procs for 1 steps with 12855 atoms

98.8% CPU use with 1 MPI tasks x 8 OpenMP threads

MPI task timing breakdown:
Section |  min time  |  avg time  |  max time  |%varavg| %total
---------------------------------------------------------------
Pair    | 0.012139   | 0.012139   | 0.012139   |   0.0 | 93.51
Neigh   | 0          | 0          | 0          |   0.0 |  0.00
Comm    | 2.179e-06  | 2.179e-06  | 2.179e-06  |   0.0 |  0.02
Output  | 6.0995e-05 | 6.0995e-05 | 6.0995e-05 |   0.0 |  0.47
Modify  | 0.00069051 | 0.00069051 | 0.00069051 |   0.0 |  5.32
Other   |            | 8.929e-05  |            |       |  0.69

Nlocal:    12855 ave 12855 max 12855 min
Histogram: 1 0 0 0 0 0 0 0 0 0
Nghost:    0 ave 0 max 0 min
Histogram: 1 0 0 0 0 0 0 0 0 0
Neighs:    337153 ave 337153 max 337153 min
Histogram: 1 0 0 0 0 0 0 0 0 0
FullNghs:  674306 ave 674306 max 674306 min
Histogram: 1 0 0 0 0 0 0 0 0 0

Total # of neighbors = 674306
Ave neighs/atom = 52.4548
Neighbor list builds = 0
Dangerous builds = 0

# SAVE INDENTER
print $x file Data/indenter_${count}.txt
print -0.000251539833421207 file Data/indenter_${count}.txt
print -0.000251539833421207 file Data/indenter_12.txt
-0.000251539833421207
print $z append Data/indenter_${count}.txt
print -0.000774160004264255 append Data/indenter_${count}.txt
print -0.000774160004264255 append Data/indenter_12.txt
-0.000774160004264255
print $w append Data/indenter_${count}.txt
print 0.003 append Data/indenter_${count}.txt
print 0.003 append Data/indenter_12.txt
0.003
print $q append Data/indenter_${count}.txt
print 1.001 append Data/indenter_${count}.txt
print 1.001 append Data/indenter_12.txt
1.001

next j
next count
jump SELF start_of_loop_4
variable j loop ${jmax}
variable j loop 10
clear
  using 8 OpenMP thread(s) per MPI task

# DEFINE INITIAL CONDITIONS
# small Peridynamic cylinder hit by projectile
units		si
boundary        s s s
dimension	3
atom_style      peri
atom_modify	map array
neighbor        0.0010 bin

# small target
lattice         sc 0.001
Lattice spacing in x,y,z = 0.001 0.001 0.001
region          target cylinder y 0.0 0.0 0.037 -0.0025 0.0 units box
create_box      1 target
Created orthogonal box = (-0.037 -0.0025 -0.037) to (0.037 0 0.037)
  1 by 1 by 1 MPI processor grid
create_atoms    1 region target
Created 12855 atoms
  Time spent = 0.00194701 secs

pair_style      peri/pmb
pair_coeff      * * 1.6863e22 0.0015001 0.0005 0.25
set             group all density 2200
  12855 settings made for density
set             group all volume 1.25e-10
  12855 settings made for volume
velocity        all set 0.0 0.0 0.0 sum no units box
fix             1 all nve
fix             2 all indent 1e16 sphere v_x v_y v_z v_w units box


print "Iteration:  i = $i , j = $j, k = $k, l = $l "
Iteration:  i = 2 , j = 8, k = 1, l = 1 

print " "
 
print " "
 
print "----------------------------------------------------------------"
----------------------------------------------------------------
print "Iteration ${count} of ${countmax}"
Iteration 13 of 2325
print "----------------------------------------------------------------"
----------------------------------------------------------------
print " "
 

# Reset current timestep
reset_timestep 0

# spherical indenter to shatter target

#q is velocity for indent.txt
variable         q equal "1+(0.001*v_l)"

# indenter radius (w) for indent.txt
variable         w equal "0.0020+(0.001*v_k)"

#disk radius(v_r)
variable r equal 0.037

variable        y0 equal 0.00510
variable        vy equal -100
variable        y equal "v_y0 + v_q*step*dt*v_vy"

#Hit the whole disk
#variable        x equal "cos((PI/2)*v_i/v_imax)*((v_i-1)/v_imax*v_r)"
#variable        z equal "sin((PI/2)*v_j/v_jmax)*((v_j-1)/v_jmax*v_r)"

#Hit the disk reduced 5times compare to disk size
variable        x equal "cos((2*PI)*v_j/v_jmax)*(v_i/v_imax)*v_r*(0.33)"
variable        z equal "sin((2*PI)*v_j/v_jmax)*(v_i/v_imax)*v_r*(0.33)"

compute         1 all damage/atom
timestep        1.0e-7
thermo          100

dump            ${count} all custom 1000 Data/dump_${count}.peri id type x y z c_1
dump            13 all custom 1000 Data/dump_${count}.peri id type x y z c_1
dump            13 all custom 1000 Data/dump_13.peri id type x y z c_1

run             1
Neighbor list info ...
  update every 1 steps, delay 10 steps, check yes
  max neighbors/atom: 2000, page size: 100000
  master list distance cutoff = 0.0025001
  ghost atom cutoff = 0.0025001
  binsize = 0.00125005, bins = 60 3 60
  2 neighbor lists, perpetual/occasional/extra = 1 1 0
  (1) pair peri/pmb, perpetual
      attributes: half, newton on
      pair build: half/bin/atomonly/newton
      stencil: half/bin/3d/newton
      bin: standard
  (2) fix PERI_NEIGH, occasional
      attributes: full, newton on
      pair build: full/bin/atomonly
      stencil: full/bin/3d
      bin: standard
Peridynamic bonds:
  total # of bonds = 185180
  bonds/atom = 14.4053
Per MPI rank memory allocation (min/avg/max) = 22.9 | 22.9 | 22.9 Mbytes
Step Temp E_pair E_mol TotEng Press Volume 
       0            0            0            0            0            0 1.095912e-05 
       1            0            0            0            0            0 1.095912e-05 
Loop time of 0.0132473 on 8 procs for 1 steps with 12855 atoms

99.3% CPU use with 1 MPI tasks x 8 OpenMP threads

MPI task timing breakdown:
Section |  min time  |  avg time  |  max time  |%varavg| %total
---------------------------------------------------------------
Pair    | 0.01181    | 0.01181    | 0.01181    |   0.0 | 89.15
Neigh   | 0          | 0          | 0          |   0.0 |  0.00
Comm    | 2.691e-06  | 2.691e-06  | 2.691e-06  |   0.0 |  0.02
Output  | 0.00038251 | 0.00038251 | 0.00038251 |   0.0 |  2.89
Modify  | 0.0010204  | 0.0010204  | 0.0010204  |   0.0 |  7.70
Other   |            | 3.174e-05  |            |       |  0.24

Nlocal:    12855 ave 12855 max 12855 min
Histogram: 1 0 0 0 0 0 0 0 0 0
Nghost:    0 ave 0 max 0 min
Histogram: 1 0 0 0 0 0 0 0 0 0
Neighs:    337153 ave 337153 max 337153 min
Histogram: 1 0 0 0 0 0 0 0 0 0
FullNghs:  674306 ave 674306 max 674306 min
Histogram: 1 0 0 0 0 0 0 0 0 0

Total # of neighbors = 674306
Ave neighs/atom = 52.4548
Neighbor list builds = 0
Dangerous builds = 0

# SAVE INDENTER
print $x file Data/indenter_${count}.txt
print 0.000251539833421207 file Data/indenter_${count}.txt
print 0.000251539833421207 file Data/indenter_13.txt
0.000251539833421207
print $z append Data/indenter_${count}.txt
print -0.000774160004264255 append Data/indenter_${count}.txt
print -0.000774160004264255 append Data/indenter_13.txt
-0.000774160004264255
print $w append Data/indenter_${count}.txt
print 0.003 append Data/indenter_${count}.txt
print 0.003 append Data/indenter_13.txt
0.003
print $q append Data/indenter_${count}.txt
print 1.001 append Data/indenter_${count}.txt
print 1.001 append Data/indenter_13.txt
1.001

next j
next count
jump SELF start_of_loop_4
variable j loop ${jmax}
variable j loop 10
clear
  using 8 OpenMP thread(s) per MPI task

# DEFINE INITIAL CONDITIONS
# small Peridynamic cylinder hit by projectile
units		si
boundary        s s s
dimension	3
atom_style      peri
atom_modify	map array
neighbor        0.0010 bin

# small target
lattice         sc 0.001
Lattice spacing in x,y,z = 0.001 0.001 0.001
region          target cylinder y 0.0 0.0 0.037 -0.0025 0.0 units box
create_box      1 target
Created orthogonal box = (-0.037 -0.0025 -0.037) to (0.037 0 0.037)
  1 by 1 by 1 MPI processor grid
create_atoms    1 region target
Created 12855 atoms
  Time spent = 0.00289079 secs

pair_style      peri/pmb
pair_coeff      * * 1.6863e22 0.0015001 0.0005 0.25
set             group all density 2200
  12855 settings made for density
set             group all volume 1.25e-10
  12855 settings made for volume
velocity        all set 0.0 0.0 0.0 sum no units box
fix             1 all nve
fix             2 all indent 1e16 sphere v_x v_y v_z v_w units box


print "Iteration:  i = $i , j = $j, k = $k, l = $l "
Iteration:  i = 2 , j = 9, k = 1, l = 1 

print " "
 
print " "
 
print "----------------------------------------------------------------"
----------------------------------------------------------------
print "Iteration ${count} of ${countmax}"
Iteration 14 of 2325
print "----------------------------------------------------------------"
----------------------------------------------------------------
print " "
 

# Reset current timestep
reset_timestep 0

# spherical indenter to shatter target

#q is velocity for indent.txt
variable         q equal "1+(0.001*v_l)"

# indenter radius (w) for indent.txt
variable         w equal "0.0020+(0.001*v_k)"

#disk radius(v_r)
variable r equal 0.037

variable        y0 equal 0.00510
variable        vy equal -100
variable        y equal "v_y0 + v_q*step*dt*v_vy"

#Hit the whole disk
#variable        x equal "cos((PI/2)*v_i/v_imax)*((v_i-1)/v_imax*v_r)"
#variable        z equal "sin((PI/2)*v_j/v_jmax)*((v_j-1)/v_jmax*v_r)"

#Hit the disk reduced 5times compare to disk size
variable        x equal "cos((2*PI)*v_j/v_jmax)*(v_i/v_imax)*v_r*(0.33)"
variable        z equal "sin((2*PI)*v_j/v_jmax)*(v_i/v_imax)*v_r*(0.33)"

compute         1 all damage/atom
timestep        1.0e-7
thermo          100

dump            ${count} all custom 1000 Data/dump_${count}.peri id type x y z c_1
dump            14 all custom 1000 Data/dump_${count}.peri id type x y z c_1
dump            14 all custom 1000 Data/dump_14.peri id type x y z c_1

run             1
Neighbor list info ...
  update every 1 steps, delay 10 steps, check yes
  max neighbors/atom: 2000, page size: 100000
  master list distance cutoff = 0.0025001
  ghost atom cutoff = 0.0025001
  binsize = 0.00125005, bins = 60 3 60
  2 neighbor lists, perpetual/occasional/extra = 1 1 0
  (1) pair peri/pmb, perpetual
      attributes: half, newton on
      pair build: half/bin/atomonly/newton
      stencil: half/bin/3d/newton
      bin: standard
  (2) fix PERI_NEIGH, occasional
      attributes: full, newton on
      pair build: full/bin/atomonly
      stencil: full/bin/3d
      bin: standard
Peridynamic bonds:
  total # of bonds = 185180
  bonds/atom = 14.4053
Per MPI rank memory allocation (min/avg/max) = 22.9 | 22.9 | 22.9 Mbytes
Step Temp E_pair E_mol TotEng Press Volume 
       0            0            0            0            0            0 1.095912e-05 
       1            0            0            0            0            0 1.095912e-05 
Loop time of 0.0119075 on 8 procs for 1 steps with 12855 atoms

99.8% CPU use with 1 MPI tasks x 8 OpenMP threads

MPI task timing breakdown:
Section |  min time  |  avg time  |  max time  |%varavg| %total
---------------------------------------------------------------
Pair    | 0.010367   | 0.010367   | 0.010367   |   0.0 | 87.07
Neigh   | 0          | 0          | 0          |   0.0 |  0.00
Comm    | 2.37e-06   | 2.37e-06   | 2.37e-06   |   0.0 |  0.02
Output  | 0.00040117 | 0.00040117 | 0.00040117 |   0.0 |  3.37
Modify  | 0.0011119  | 0.0011119  | 0.0011119  |   0.0 |  9.34
Other   |            | 2.455e-05  |            |       |  0.21

Nlocal:    12855 ave 12855 max 12855 min
Histogram: 1 0 0 0 0 0 0 0 0 0
Nghost:    0 ave 0 max 0 min
Histogram: 1 0 0 0 0 0 0 0 0 0
Neighs:    337153 ave 337153 max 337153 min
Histogram: 1 0 0 0 0 0 0 0 0 0
FullNghs:  674306 ave 674306 max 674306 min
Histogram: 1 0 0 0 0 0 0 0 0 0

Total # of neighbors = 674306
Ave neighs/atom = 52.4548
Neighbor list builds = 0
Dangerous builds = 0

# SAVE INDENTER
print $x file Data/indenter_${count}.txt
print 0.000658539833421207 file Data/indenter_${count}.txt
print 0.000658539833421207 file Data/indenter_14.txt
0.000658539833421207
print $z append Data/indenter_${count}.txt
print -0.000478457195366073 append Data/indenter_${count}.txt
print -0.000478457195366073 append Data/indenter_14.txt
-0.000478457195366073
print $w append Data/indenter_${count}.txt
print 0.003 append Data/indenter_${count}.txt
print 0.003 append Data/indenter_14.txt
0.003
print $q append Data/indenter_${count}.txt
print 1.001 append Data/indenter_${count}.txt
print 1.001 append Data/indenter_14.txt
1.001

next j
next count
jump SELF start_of_loop_4
variable j loop ${jmax}
variable j loop 10
clear
  using 8 OpenMP thread(s) per MPI task

# DEFINE INITIAL CONDITIONS
# small Peridynamic cylinder hit by projectile
units		si
boundary        s s s
dimension	3
atom_style      peri
atom_modify	map array
neighbor        0.0010 bin

# small target
lattice         sc 0.001
Lattice spacing in x,y,z = 0.001 0.001 0.001
region          target cylinder y 0.0 0.0 0.037 -0.0025 0.0 units box
create_box      1 target
Created orthogonal box = (-0.037 -0.0025 -0.037) to (0.037 0 0.037)
  1 by 1 by 1 MPI processor grid
create_atoms    1 region target
Created 12855 atoms
  Time spent = 0.00325649 secs

pair_style      peri/pmb
pair_coeff      * * 1.6863e22 0.0015001 0.0005 0.25
set             group all density 2200
  12855 settings made for density
set             group all volume 1.25e-10
  12855 settings made for volume
velocity        all set 0.0 0.0 0.0 sum no units box
fix             1 all nve
fix             2 all indent 1e16 sphere v_x v_y v_z v_w units box


print "Iteration:  i = $i , j = $j, k = $k, l = $l "
Iteration:  i = 2 , j = 10, k = 1, l = 1 

print " "
 
print " "
 
print "----------------------------------------------------------------"
----------------------------------------------------------------
print "Iteration ${count} of ${countmax}"
Iteration 15 of 2325
print "----------------------------------------------------------------"
----------------------------------------------------------------
print " "
 

# Reset current timestep
reset_timestep 0

# spherical indenter to shatter target

#q is velocity for indent.txt
variable         q equal "1+(0.001*v_l)"

# indenter radius (w) for indent.txt
variable         w equal "0.0020+(0.001*v_k)"

#disk radius(v_r)
variable r equal 0.037

variable        y0 equal 0.00510
variable        vy equal -100
variable        y equal "v_y0 + v_q*step*dt*v_vy"

#Hit the whole disk
#variable        x equal "cos((PI/2)*v_i/v_imax)*((v_i-1)/v_imax*v_r)"
#variable        z equal "sin((PI/2)*v_j/v_jmax)*((v_j-1)/v_jmax*v_r)"

#Hit the disk reduced 5times compare to disk size
variable        x equal "cos((2*PI)*v_j/v_jmax)*(v_i/v_imax)*v_r*(0.33)"
variable        z equal "sin((2*PI)*v_j/v_jmax)*(v_i/v_imax)*v_r*(0.33)"

compute         1 all damage/atom
timestep        1.0e-7
thermo          100

dump            ${count} all custom 1000 Data/dump_${count}.peri id type x y z c_1
dump            15 all custom 1000 Data/dump_${count}.peri id type x y z c_1
dump            15 all custom 1000 Data/dump_15.peri id type x y z c_1

run             1
Neighbor list info ...
  update every 1 steps, delay 10 steps, check yes
  max neighbors/atom: 2000, page size: 100000
  master list distance cutoff = 0.0025001
  ghost atom cutoff = 0.0025001
  binsize = 0.00125005, bins = 60 3 60
  2 neighbor lists, perpetual/occasional/extra = 1 1 0
  (1) pair peri/pmb, perpetual
      attributes: half, newton on
      pair build: half/bin/atomonly/newton
      stencil: half/bin/3d/newton
      bin: standard
  (2) fix PERI_NEIGH, occasional
      attributes: full, newton on
      pair build: full/bin/atomonly
      stencil: full/bin/3d
      bin: standard
Peridynamic bonds:
  total # of bonds = 185180
  bonds/atom = 14.4053
Per MPI rank memory allocation (min/avg/max) = 22.9 | 22.9 | 22.9 Mbytes
Step Temp E_pair E_mol TotEng Press Volume 
       0            0            0            0            0            0 1.095912e-05 
       1            0            0            0            0            0 1.095912e-05 
Loop time of 0.0123123 on 8 procs for 1 steps with 12855 atoms

97.3% CPU use with 1 MPI tasks x 8 OpenMP threads

MPI task timing breakdown:
Section |  min time  |  avg time  |  max time  |%varavg| %total
---------------------------------------------------------------
Pair    | 0.010935   | 0.010935   | 0.010935   |   0.0 | 88.82
Neigh   | 0          | 0          | 0          |   0.0 |  0.00
Comm    | 1.429e-06  | 1.429e-06  | 1.429e-06  |   0.0 |  0.01
Output  | 0.00039293 | 0.00039293 | 0.00039293 |   0.0 |  3.19
Modify  | 0.00095844 | 0.00095844 | 0.00095844 |   0.0 |  7.78
Other   |            | 2.4e-05    |            |       |  0.19

Nlocal:    12855 ave 12855 max 12855 min
Histogram: 1 0 0 0 0 0 0 0 0 0
Nghost:    0 ave 0 max 0 min
Histogram: 1 0 0 0 0 0 0 0 0 0
Neighs:    337153 ave 337153 max 337153 min
Histogram: 1 0 0 0 0 0 0 0 0 0
FullNghs:  674306 ave 674306 max 674306 min
Histogram: 1 0 0 0 0 0 0 0 0 0

Total # of neighbors = 674306
Ave neighs/atom = 52.4548
Neighbor list builds = 0
Dangerous builds = 0

# SAVE INDENTER
print $x file Data/indenter_${count}.txt
print 0.000814 file Data/indenter_${count}.txt
print 0.000814 file Data/indenter_15.txt
0.000814
print $z append Data/indenter_${count}.txt
print -1.99372498901189e-19 append Data/indenter_${count}.txt
print -1.99372498901189e-19 append Data/indenter_15.txt
-1.99372498901189e-19
print $w append Data/indenter_${count}.txt
print 0.003 append Data/indenter_${count}.txt
print 0.003 append Data/indenter_15.txt
0.003
print $q append Data/indenter_${count}.txt
print 1.001 append Data/indenter_${count}.txt
print 1.001 append Data/indenter_15.txt
1.001

next j
next count
jump SELF start_of_loop_4

next i
jump SELF start_of_loop_3
variable i loop ${imax}
variable i loop 30

variable jmax equal "5*v_i"

print "imax = ${imax}"
imax = 30
print "jmax = ${jmax}"
jmax = 15

[...]
region          target cylinder y 0.0 0.0 0.037 -0.0025 0.0 units box
create_box      1 target
Created orthogonal box = (-0.037 -0.0025 -0.037) to (0.037 0 0.037)
  1 by 1 by 1 MPI processor grid
create_atoms    1 region target
Created 12855 atoms
  Time spent = 0.00153502 secs

pair_style      peri/pmb
pair_coeff      * * 1.6863e22 0.0015001 0.0005 0.25
set             group all density 2200
  12855 settings made for density
set             group all volume 1.25e-10
  12855 settings made for volume
velocity        all set 0.0 0.0 0.0 sum no units box
fix             1 all nve
fix             2 all indent 1e16 sphere v_x v_y v_z v_w units box


print "Iteration:  i = $i , j = $j, k = $k, l = $l "
Iteration:  i = 6 , j = 6, k = 1, l = 1 

print " "
 
print " "
 
print "----------------------------------------------------------------"
----------------------------------------------------------------
print "Iteration ${count} of ${countmax}"
Iteration 81 of 2325
print "----------------------------------------------------------------"
----------------------------------------------------------------
print " "
 

# Reset current timestep
reset_timestep 0

# spherical indenter to shatter target

#q is velocity for indent.txt
variable         q equal "1+(0.001*v_l)"

# indenter radius (w) for indent.txt
variable         w equal "0.0020+(0.001*v_k)"

#disk radius(v_r)
variable r equal 0.037

variable        y0 equal 0.00510
variable        vy equal -100
variable        y equal "v_y0 + v_q*step*dt*v_vy"

#Hit the whole disk
#variable        x equal "cos((PI/2)*v_i/v_imax)*((v_i-1)/v_imax*v_r)"
#variable        z equal "sin((PI/2)*v_j/v_jmax)*((v_j-1)/v_jmax*v_r)"

#Hit the disk reduced 5times compare to disk size
variable        x equal "cos((2*PI)*v_j/v_jmax)*(v_i/v_imax)*v_r*(0.33)"
variable        z equal "sin((2*PI)*v_j/v_jmax)*(v_i/v_imax)*v_r*(0.33)"

compute         1 all damage/atom
timestep        1.0e-7
thermo          100

dump            ${count} all custom 1000 Data/dump_${count}.peri id type x y z c_1
dump            81 all custom 1000 Data/dump_${count}.peri id type x y z c_1
dump            81 all custom 1000 Data/dump_81.peri id type x y z c_1

run             1
Neighbor list info ...
  update every 1 steps, delay 10 steps, check yes
  max neighbors/atom: 2000, page size: 100000
  master list distance cutoff = 0.0025001
  ghost atom cutoff = 0.0025001
  binsize = 0.00125005, bins = 60 3 60
  2 neighbor lists, perpetual/occasional/extra = 1 1 0
  (1) pair peri/pmb, perpetual
      attributes: half, newton on
      pair build: half/bin/atomonly/newton
      stencil: half/bin/3d/newton
      bin: standard
  (2) fix PERI_NEIGH, occasional
      attributes: full, newton on
      pair build: full/bin/atomonly
      stencil: full/bin/3d
      bin: standard
Peridynamic bonds:
  total # of bonds = 185180
  bonds/atom = 14.4053
Per MPI rank memory allocation (min/avg/max) = 22.9 | 22.9 | 22.9 Mbytes
Step Temp E_pair E_mol TotEng Press Volume 
       0            0            0            0            0            0 1.095912e-05 
       1            0            0            0            0            0 1.095912e-05 
Loop time of 0.00989273 on 8 procs for 1 steps with 12855 atoms

99.9% CPU use with 1 MPI tasks x 8 OpenMP threads

MPI task timing breakdown:
Section |  min time  |  avg time  |  max time  |%varavg| %total
---------------------------------------------------------------
Pair    | 0.0096001  | 0.0096001  | 0.0096001  |   0.0 | 97.04
Neigh   | 0          | 0          | 0          |   0.0 |  0.00
Comm    | 5.0006e-07 | 5.0006e-07 | 5.0006e-07 |   0.0 |  0.01
Output  | 5.2803e-05 | 5.2803e-05 | 5.2803e-05 |   0.0 |  0.53
Modify  | 0.00022944 | 0.00022944 | 0.00022944 |   0.0 |  2.32
Other   |            | 9.845e-06  |            |       |  0.10

Nlocal:    12855 ave 12855 max 12855 min
Histogram: 1 0 0 0 0 0 0 0 0 0
Nghost:    0 ave 0 max 0 min
Histogram: 1 0 0 0 0 0 0 0 0 0
Neighs:    337153 ave 337153 max 337153 min
Histogram: 1 0 0 0 0 0 0 0 0 0
FullNghs:  674306 ave 674306 max 674306 min
Histogram: 1 0 0 0 0 0 0 0 0 0

Total # of neighbors = 674306
Ave neighs/atom = 52.4548
Neighbor list builds = 0
Dangerous builds = 0

# SAVE INDENTER
print $x file Data/indenter_${count}.txt
print 0.000754619500263622 file Data/indenter_${count}.txt
print 0.000754619500263622 file Data/indenter_81.txt
0.000754619500263622
print $z append Data/indenter_${count}.txt
print 0.00232248001279277 append Data/indenter_${count}.txt
print 0.00232248001279277 append Data/indenter_81.txt
0.00232248001279277
print $w append Data/indenter_${count}.txt
print 0.003 append Data/indenter_${count}.txt
print 0.003 append Data/indenter_81.txt
0.003
print $q append Data/indenter_${count}.txt
print 1.001 append Data/indenter_${count}.txt
print 1.001 append Data/indenter_81.txt
1.001

next j
next count
jump SELF start_of_loop_4
variable j loop ${jmax}
variable j loop 30
clear
  using 8 OpenMP thread(s) per MPI task

# DEFINE INITIAL CONDITIONS
# small Peridynamic cylinder hit by projectile
units		si
boundary        s s s
dimension	3
atom_style      peri
atom_modify	map array
neighbor        0.0010 bin

# small target
lattice         sc 0.001
Lattice spacing in x,y,z = 0.001 0.001 0.001
region          target cylinder y 0.0 0.0 0.037 -0.0025 0.0 units box
create_box      1 target
Created orthogonal box = (-0.037 -0.0025 -0.037) to (0.037 0 0.037)
  1 by 1 by 1 MPI processor grid
create_atoms    1 region target
Created 12855 atoms
  Time spent = 0.00152642 secs

pair_style      peri/pmb
pair_coeff      * * 1.6863e22 0.0015001 0.0005 0.25
set             group all density 2200
  12855 settings made for density
set             group all volume 1.25e-10
  12855 settings made for volume
velocity        all set 0.0 0.0 0.0 sum no units box
fix             1 all nve
fix             2 all indent 1e16 sphere v_x v_y v_z v_w units box


print "Iteration:  i = $i , j = $j, k = $k, l = $l "
Iteration:  i = 6 , j = 7, k = 1, l = 1 

print " "
 
print " "
 
print "----------------------------------------------------------------"
----------------------------------------------------------------
print "Iteration ${count} of ${countmax}"
Iteration 82 of 2325
print "----------------------------------------------------------------"
----------------------------------------------------------------
print " "
 

# Reset current timestep
reset_timestep 0

# spherical indenter to shatter target

#q is velocity for indent.txt
variable         q equal "1+(0.001*v_l)"

# indenter radius (w) for indent.txt
variable         w equal "0.0020+(0.001*v_k)"

#disk radius(v_r)
variable r equal 0.037

variable        y0 equal 0.00510
variable        vy equal -100
variable        y equal "v_y0 + v_q*step*dt*v_vy"

#Hit the whole disk
#variable        x equal "cos((PI/2)*v_i/v_imax)*((v_i-1)/v_imax*v_r)"
#variable        z equal "sin((PI/2)*v_j/v_jmax)*((v_j-1)/v_jmax*v_r)"

#Hit the disk reduced 5times compare to disk size
variable        x equal "cos((2*PI)*v_j/v_jmax)*(v_i/v_imax)*v_r*(0.33)"
variable        z equal "sin((2*PI)*v_j/v_jmax)*(v_i/v_imax)*v_r*(0.33)"

compute         1 all damage/atom
timestep        1.0e-7
thermo          100

dump            ${count} all custom 1000 Data/dump_${count}.peri id type x y z c_1
dump            82 all custom 1000 Data/dump_${count}.peri id type x y z c_1
dump            82 all custom 1000 Data/dump_82.peri id type x y z c_1

run             1
Neighbor list info ...
  update every 1 steps, delay 10 steps, check yes
  max neighbors/atom: 2000, page size: 100000
  master list distance cutoff = 0.0025001
  ghost atom cutoff = 0.0025001
  binsize = 0.00125005, bins = 60 3 60
  2 neighbor lists, perpetual/occasional/extra = 1 1 0
  (1) pair peri/pmb, perpetual
      attributes: half, newton on
      pair build: half/bin/atomonly/newton
      stencil: half/bin/3d/newton
      bin: standard
  (2) fix PERI_NEIGH, occasional
      attributes: full, newton on
      pair build: full/bin/atomonly
      stencil: full/bin/3d
      bin: standard
Peridynamic bonds:
  total # of bonds = 185180
  bonds/atom = 14.4053
Per MPI rank memory allocation (min/avg/max) = 22.9 | 22.9 | 22.9 Mbytes
Step Temp E_pair E_mol TotEng Press Volume 
       0            0            0            0            0            0 1.095912e-05 
       1            0            0            0            0            0 1.095912e-05 
Loop time of 0.011854 on 8 procs for 1 steps with 12855 atoms

99.1% CPU use with 1 MPI tasks x 8 OpenMP threads

MPI task timing breakdown:
Section |  min time  |  avg time  |  max time  |%varavg| %total
---------------------------------------------------------------
Pair    | 0.01094    | 0.01094    | 0.01094    |   0.0 | 92.29
Neigh   | 0          | 0          | 0          |   0.0 |  0.00
Comm    | 1.199e-06  | 1.199e-06  | 1.199e-06  |   0.0 |  0.01
Output  | 9.815e-05  | 9.815e-05  | 9.815e-05  |   0.0 |  0.83
Modify  | 0.00073726 | 0.00073726 | 0.00073726 |   0.0 |  6.22
Other   |            | 7.694e-05  |            |       |  0.65

Nlocal:    12855 ave 12855 max 12855 min
Histogram: 1 0 0 0 0 0 0 0 0 0
Nghost:    0 ave 0 max 0 min
Histogram: 1 0 0 0 0 0 0 0 0 0
Neighs:    337153 ave 337153 max 337153 min
Histogram: 1 0 0 0 0 0 0 0 0 0
FullNghs:  674306 ave 674306 max 674306 min
Histogram: 1 0 0 0 0 0 0 0 0 0

Total # of neighbors = 674306
Ave neighs/atom = 52.4548
Neighbor list builds = 0
Dangerous builds = 0

# SAVE INDENTER
print $x file Data/indenter_${count}.txt
print 0.00025525850729961 file Data/indenter_${count}.txt
print 0.00025525850729961 file Data/indenter_82.txt
0.00025525850729961
print $z append Data/indenter_${count}.txt
print 0.00242862246848932 append Data/indenter_${count}.txt
print 0.00242862246848932 append Data/indenter_82.txt
0.00242862246848932
print $w append Data/indenter_${count}.txt
print 0.003 append Data/indenter_${count}.txt
print 0.003 append Data/indenter_82.txt
0.003
print $q append Data/indenter_${count}.txt
print 1.001 append Data/indenter_${count}.txt
print 1.001 append Data/indenter_82.txt
1.001

next j
next count
jump SELF start_of_loop_4
variable j loop ${jmax}
variable j loop 30
clear
  using 8 OpenMP thread(s) per MPI task

# DEFINE INITIAL CONDITIONS
# small Peridynamic cylinder hit by projectile
units		si
boundary        s s s
dimension	3
atom_style      peri
atom_modify	map array
neighbor        0.0010 bin

# small target
lattice         sc 0.001
Lattice spacing in x,y,z = 0.001 0.001 0.001
region          target cylinder y 0.0 0.0 0.037 -0.0025 0.0 units box
create_box      1 target
Created orthogonal box = (-0.037 -0.0025 -0.037) to (0.037 0 0.037)
  1 by 1 by 1 MPI processor grid
create_atoms    1 region target
Created 12855 atoms
  Time spent = 0.00208065 secs

pair_style      peri/pmb
pair_coeff      * * 1.6863e22 0.0015001 0.0005 0.25
set             group all density 2200
  12855 settings made for density
set             group all volume 1.25e-10
  12855 settings made for volume
velocity        all set 0.0 0.0 0.0 sum no units box
fix             1 all nve
fix             2 all indent 1e16 sphere v_x v_y v_z v_w units box


print "Iteration:  i = $i , j = $j, k = $k, l = $l "
Iteration:  i = 6 , j = 8, k = 1, l = 1 

print " "
 
print " "
 
print "----------------------------------------------------------------"
----------------------------------------------------------------
print "Iteration ${count} of ${countmax}"
Iteration 83 of 2325
print "----------------------------------------------------------------"
----------------------------------------------------------------
print " "
 

# Reset current timestep
reset_timestep 0

# spherical indenter to shatter target

#q is velocity for indent.txt
variable         q equal "1+(0.001*v_l)"

# indenter radius (w) for indent.txt
variable         w equal "0.0020+(0.001*v_k)"

#disk radius(v_r)
variable r equal 0.037

variable        y0 equal 0.00510
variable        vy equal -100
variable        y equal "v_y0 + v_q*step*dt*v_vy"

#Hit the whole disk
#variable        x equal "cos((PI/2)*v_i/v_imax)*((v_i-1)/v_imax*v_r)"
#variable        z equal "sin((PI/2)*v_j/v_jmax)*((v_j-1)/v_jmax*v_r)"

#Hit the disk reduced 5times compare to disk size
variable        x equal "cos((2*PI)*v_j/v_jmax)*(v_i/v_imax)*v_r*(0.33)"
variable        z equal "sin((2*PI)*v_j/v_jmax)*(v_i/v_imax)*v_r*(0.33)"

compute         1 all damage/atom
timestep        1.0e-7
thermo          100

dump            ${count} all custom 1000 Data/dump_${count}.peri id type x y z c_1
dump            83 all custom 1000 Data/dump_${count}.peri id type x y z c_1
dump            83 all custom 1000 Data/dump_83.peri id type x y z c_1

run             1
Neighbor list info ...
  update every 1 steps, delay 10 steps, check yes
  max neighbors/atom: 2000, page size: 100000
  master list distance cutoff = 0.0025001
  ghost atom cutoff = 0.0025001
  binsize = 0.00125005, bins = 60 3 60
  2 neighbor lists, perpetual/occasional/extra = 1 1 0
  (1) pair peri/pmb, perpetual
      attributes: half, newton on
      pair build: half/bin/atomonly/newton
      stencil: half/bin/3d/newton
      bin: standard
  (2) fix PERI_NEIGH, occasional
      attributes: full, newton on
      pair build: full/bin/atomonly
      stencil: full/bin/3d
      bin: standard
Peridynamic bonds:
  total # of bonds = 185180
  bonds/atom = 14.4053
Per MPI rank memory allocation (min/avg/max) = 22.9 | 22.9 | 22.9 Mbytes
Step Temp E_pair E_mol TotEng Press Volume 
       0            0            0            0            0            0 1.095912e-05 
       1            0            0            0            0            0 1.095912e-05 
Loop time of 0.0141074 on 8 procs for 1 steps with 12855 atoms

98.1% CPU use with 1 MPI tasks x 8 OpenMP threads

MPI task timing breakdown:
Section |  min time  |  avg time  |  max time  |%varavg| %total
---------------------------------------------------------------
Pair    | 0.012771   | 0.012771   | 0.012771   |   0.0 | 90.53
Neigh   | 0          | 0          | 0          |   0.0 |  0.00
Comm    | 2.333e-06  | 2.333e-06  | 2.333e-06  |   0.0 |  0.02
Output  | 0.00036069 | 0.00036069 | 0.00036069 |   0.0 |  2.56
Modify  | 0.00095021 | 0.00095021 | 0.00095021 |   0.0 |  6.74
Other   |            | 2.343e-05  |            |       |  0.17

Nlocal:    12855 ave 12855 max 12855 min
Histogram: 1 0 0 0 0 0 0 0 0 0
Nghost:    0 ave 0 max 0 min
Histogram: 1 0 0 0 0 0 0 0 0 0
Neighs:    337153 ave 337153 max 337153 min
Histogram: 1 0 0 0 0 0 0 0 0 0
FullNghs:  674306 ave 674306 max 674306 min
Histogram: 1 0 0 0 0 0 0 0 0 0

Total # of neighbors = 674306
Ave neighs/atom = 52.4548
Neighbor list builds = 0
Dangerous builds = 0

# SAVE INDENTER
print $x file Data/indenter_${count}.txt
print -0.000255258507299609 file Data/indenter_${count}.txt
print -0.000255258507299609 file Data/indenter_83.txt
-0.000255258507299609
print $z append Data/indenter_${count}.txt
print 0.00242862246848932 append Data/indenter_${count}.txt
print 0.00242862246848932 append Data/indenter_83.txt
0.00242862246848932
print $w append Data/indenter_${count}.txt
print 0.003 append Data/indenter_${count}.txt
print 0.003 append Data/indenter_83.txt
0.003
print $q append Data/indenter_${count}.txt
print 1.001 append Data/indenter_${count}.txt
print 1.001 append Data/indenter_83.txt
1.001

next j
next count
jump SELF start_of_loop_4
variable j loop ${jmax}
variable j loop 30
clear
  using 8 OpenMP thread(s) per MPI task

# DEFINE INITIAL CONDITIONS
# small Peridynamic cylinder hit by projectile
units		si
boundary        s s s
dimension	3
atom_style      peri
atom_modify	map array
neighbor        0.0010 bin

# small target
lattice         sc 0.001
Lattice spacing in x,y,z = 0.001 0.001 0.001
region          target cylinder y 0.0 0.0 0.037 -0.0025 0.0 units box
create_box      1 target
Created orthogonal box = (-0.037 -0.0025 -0.037) to (0.037 0 0.037)
  1 by 1 by 1 MPI processor grid
create_atoms    1 region target
Created 12855 atoms
  Time spent = 0.0027497 secs

pair_style      peri/pmb
pair_coeff      * * 1.6863e22 0.0015001 0.0005 0.25
set             group all density 2200
  12855 settings made for density
set             group all volume 1.25e-10
  12855 settings made for volume
velocity        all set 0.0 0.0 0.0 sum no units box
fix             1 all nve
fix             2 all indent 1e16 sphere v_x v_y v_z v_w units box


print "Iteration:  i = $i , j = $j, k = $k, l = $l "
Iteration:  i = 6 , j = 9, k = 1, l = 1 

print " "
 
print " "
 
print "----------------------------------------------------------------"
----------------------------------------------------------------
print "Iteration ${count} of ${countmax}"
Iteration 84 of 2325
print "----------------------------------------------------------------"
----------------------------------------------------------------
print " "
 

# Reset current timestep
reset_timestep 0

# spherical indenter to shatter target

#q is velocity for indent.txt
variable         q equal "1+(0.001*v_l)"

# indenter radius (w) for indent.txt
variable         w equal "0.0020+(0.001*v_k)"

#disk radius(v_r)
variable r equal 0.037

variable        y0 equal 0.00510
variable        vy equal -100
variable        y equal "v_y0 + v_q*step*dt*v_vy"

#Hit the whole disk
#variable        x equal "cos((PI/2)*v_i/v_imax)*((v_i-1)/v_imax*v_r)"
#variable        z equal "sin((PI/2)*v_j/v_jmax)*((v_j-1)/v_jmax*v_r)"

#Hit the disk reduced 5times compare to disk size
variable        x equal "cos((2*PI)*v_j/v_jmax)*(v_i/v_imax)*v_r*(0.33)"
variable        z equal "sin((2*PI)*v_j/v_jmax)*(v_i/v_imax)*v_r*(0.33)"

compute         1 all damage/atom
timestep        1.0e-7
thermo          100

dump            ${count} all custom 1000 Data/dump_${count}.peri id type x y z c_1
dump            84 all custom 1000 Data/dump_${count}.peri id type x y z c_1
dump            84 all custom 1000 Data/dump_84.peri id type x y z c_1

run             1
Neighbor list info ...
  update every 1 steps, delay 10 steps, check yes
  max neighbors/atom: 2000, page size: 100000
  master list distance cutoff = 0.0025001
  ghost atom cutoff = 0.0025001
  binsize = 0.00125005, bins = 60 3 60
  2 neighbor lists, perpetual/occasional/extra = 1 1 0
  (1) pair peri/pmb, perpetual
      attributes: half, newton on
      pair build: half/bin/atomonly/newton
      stencil: half/bin/3d/newton
      bin: standard
  (2) fix PERI_NEIGH, occasional
      attributes: full, newton on
      pair build: full/bin/atomonly
      stencil: full/bin/3d
      bin: standard
Peridynamic bonds:
  total # of bonds = 185180
  bonds/atom = 14.4053
Per MPI rank memory allocation (min/avg/max) = 22.9 | 22.9 | 22.9 Mbytes
Step Temp E_pair E_mol TotEng Press Volume 
       0            0            0            0            0            0 1.095912e-05 
       1            0            0            0            0            0 1.095912e-05 
Loop time of 0.0134827 on 8 procs for 1 steps with 12855 atoms

98.6% CPU use with 1 MPI tasks x 8 OpenMP threads

MPI task timing breakdown:
Section |  min time  |  avg time  |  max time  |%varavg| %total
---------------------------------------------------------------
Pair    | 0.012168   | 0.012168   | 0.012168   |   0.0 | 90.25
Neigh   | 0          | 0          | 0          |   0.0 |  0.00
Comm    | 2.698e-06  | 2.698e-06  | 2.698e-06  |   0.0 |  0.02
Output  | 0.00042902 | 0.00042902 | 0.00042902 |   0.0 |  3.18
Modify  | 0.00085985 | 0.00085985 | 0.00085985 |   0.0 |  6.38
Other   |            | 2.329e-05  |            |       |  0.17

Nlocal:    12855 ave 12855 max 12855 min
Histogram: 1 0 0 0 0 0 0 0 0 0
Nghost:    0 ave 0 max 0 min
Histogram: 1 0 0 0 0 0 0 0 0 0
Neighs:    337153 ave 337153 max 337153 min
Histogram: 1 0 0 0 0 0 0 0 0 0
FullNghs:  674306 ave 674306 max 674306 min
Histogram: 1 0 0 0 0 0 0 0 0 0

Total # of neighbors = 674306
Ave neighs/atom = 52.4548
Neighbor list builds = 0
Dangerous builds = 0
