ITEM: TIMESTEP
0
ITEM: NUMBER OF ATOMS
3080
ITEM: BOX BOUNDS ss ss ss
-3.7007399999999996e-02 3.7007399999999996e-02
-2.0002499999999999e-03 2.5000000000000004e-07
-3.7007399999999996e-02 3.7007399999999996e-02
ITEM: ATOMS id type x y z c_1
0 1 -0.037209375 -0.0012499999999999998 -0.0005906250000000009 0.37680280312719844
1 1 -0.036028124999999994 -0.0012499999999999998 -0.0076781249999999975 1.0510053126204188e-69
2 1 -0.036028124999999994 -0.0012499999999999998 -0.006496874999999999 0.0
3 1 -0.036028124999999994 -0.0012499999999999998 -0.005315625000000001 0.0
4 1 -0.036028124999999994 -0.0012499999999999998 -0.004134374999999999 0.0
5 1 -0.036028124999999994 -0.0012499999999999998 -0.0029531249999999974 3.081028350653209e-149
6 1 -0.036028124999999994 -0.0012499999999999998 -0.0017718750000000026 1.2139888326029233e-40
7 1 -0.036028124999999994 -0.0012499999999999998 -0.0005906250000000009 2.440314014677747e-30
8 1 -0.036028124999999994 -0.0012499999999999998 0.0005906250000000009 6.310013496258915e-45
9 1 -0.036028124999999994 -0.0012499999999999998 0.0017718750000000026 1.775834967959912e-29
10 1 -0.036028124999999994 -0.0012499999999999998 0.0029531250000000044 3.5646367294847895e-98
11 1 -0.036028124999999994 -0.0012499999999999998 0.004134374999999999 2.2437769034057394e-257
12 1 -0.036028124999999994 -0.0012499999999999998 0.005315625000000001 0.0
13 1 -0.036028124999999994 -0.0012499999999999998 0.006496875000000003 4.8564687244657e-139
14 1 -0.036028124999999994 -0.0012499999999999998 0.0076781249999999975 5.069693280743703e-112
15 1 -0.034846875 -0.0012499999999999998 -0.011221875 3.776343568112232e-166
16 1 -0.034846875 -0.0012499999999999998 -0.010040625000000001 1.2917940755148323e-232
17 1 -0.034846875 -0.0012499999999999998 -0.008859375 1.606356589077685e-163
18 1 -0.034846875 -0.0012499999999999998 -0.0076781249999999975 0.0
19 1 -0.034846875 -0.0012499999999999998 -0.006496874999999999 0.0
20 1 -0.034846875 -0.0012499999999999998 -0.005315625000000001 0.0
21 1 -0.034846875 -0.0012499999999999998 -0.004134374999999999 0.0
22 1 -0.034846875 -0.0012499999999999998 -0.0029531249999999974 3.528075409248075e-145
23 1 -0.034846875 -0.0012499999999999998 -0.0017718750000000026 3.314296255341986e-66
24 1 -0.034846875 -0.0012499999999999998 -0.0005906250000000009 1.774637297936721e-105
25 1 -0.034846875 -0.0012499999999999998 0.0005906250000000009 4.190072886586719e-70
26 1 -0.034846875 -0.0012499999999999998 0.0017718750000000026 2.245712279951601e-301
27 1 -0.034846875 -0.0012499999999999998 0.0029531250000000044 2.3060843484082852e-98
28 1 -0.034846875 -0.0012499999999999998 0.004134374999999999 0.0
29 1 -0.034846875 -0.0012499999999999998 0.005315625000000001 0.0
30 1 -0.034846875 -0.0012499999999999998 0.006496875000000003 0.0
31 1 -0.034846875 -0.0012499999999999998 0.0076781249999999975 2.083070928273132e-236
32 1 -0.034846875 -0.0012499999999999998 0.008859375 2.971838630476069e-122
33 1 -0.034846875 -0.0012499999999999998 0.010040625000000001 3.1021172453449032e-257
34 1 -0.034846875 -0.0012499999999999998 0.011221875000000003 2.1246516077669285e-208
35 1 -0.033665625000000005 -0.0012499999999999998 -0.013584375 0.0
36 1 -0.033665625000000005 -0.0012499999999999998 -0.012403124999999997 2.4502975941096835e-305
37 1 -0.033665625000000005 -0.0012499999999999998 -0.011221875 0.0
38 1 -0.033665625000000005 -0.0012499999999999998 -0.010040625000000001 0.0
39 1 -0.033665625000000005 -0.0012499999999999998 -0.008859375 0.0
40 1 -0.033665625000000005 -0.0012499999999999998 -0.0076781249999999975 0.0
41 1 -0.033665625000000005 -0.0012499999999999998 -0.006496874999999999 0.0
42 1 -0.033665625000000005 -0.0012499999999999998 -0.005315625000000001 0.0
43 1 -0.033665625000000005 -0.0012499999999999998 -0.004134374999999999 0.0
44 1 -0.033665625000000005 -0.0012499999999999998 -0.0029531249999999974 0.0
45 1 -0.033665625000000005 -0.0012499999999999998 -0.0017718750000000026 1.8865189056465205e-252
46 1 -0.033665625000000005 -0.0012499999999999998 -0.0005906250000000009 6.121657090519458e-110
47 1 -0.033665625000000005 -0.0012499999999999998 0.0005906250000000009 0.0
48 1 -0.033665625000000005 -0.0012499999999999998 0.0017718750000000026 0.0
49 1 -0.033665625000000005 -0.0012499999999999998 0.0029531250000000044 0.0
50 1 -0.033665625000000005 -0.0012499999999999998 0.004134374999999999 0.0
51 1 -0.033665625000000005 -0.0012499999999999998 0.005315625000000001 0.0
52 1 -0.033665625000000005 -0.0012499999999999998 0.006496875000000003 0.0
53 1 -0.033665625000000005 -0.0012499999999999998 0.0076781249999999975 0.0
54 1 -0.033665625000000005 -0.0012499999999999998 0.008859375 1.5550294546028617e-201
55 1 -0.033665625000000005 -0.0012499999999999998 0.010040625000000001 0.0
56 1 -0.033665625000000005 -0.0012499999999999998 0.011221875000000003 0.0
57 1 -0.033665625000000005 -0.0012499999999999998 0.012403125000000004 0.0
58 1 -0.033665625000000005 -0.0012499999999999998 0.013584375 0.0
59 1 -0.032484374999999996 -0.0012499999999999998 -0.018309375 0.0
60 1 -0.032484374999999996 -0.0012499999999999998 -0.017128124999999998 2.1080106308616113e-236
61 1 -0.032484374999999996 -0.0012499999999999998 -0.015946875 5.288355507963147e-268
62 1 -0.032484374999999996 -0.0012499999999999998 -0.014765625000000001 0.0
63 1 -0.032484374999999996 -0.0012499999999999998 -0.013584375 0.0
64 1 -0.032484374999999996 -0.0012499999999999998 -0.012403124999999997 4.195814760817654e-218
65 1 -0.032484374999999996 -0.0012499999999999998 -0.011221875 3.7859707920203354e-103
66 1 -0.032484374999999996 -0.0012499999999999998 -0.010040625000000001 1.4780515036256415e-177
67 1 -0.032484374999999996 -0.0012499999999999998 -0.008859375 0.0
68 1 -0.032484374999999996 -0.0012499999999999998 -0.0076781249999999975 1.6942818639477484e-262
69 1 -0.032484374999999996 -0.0012499999999999998 -0.006496874999999999 0.0
70 1 -0.032484374999999996 -0.0012499999999999998 -0.005315625000000001 0.0
71 1 -0.032484374999999996 -0.0012499999999999998 -0.004134374999999999 0.0
72 1 -0.032484374999999996 -0.0012499999999999998 -0.0029531249999999974 0.0
73 1 -0.032484374999999996 -0.0012499999999999998 -0.0017718750000000026 3.4821906193181604e-92
74 1 -0.032484374999999996 -0.0012499999999999998 -0.0005906250000000009 5.456217372928284e-190
75 1 -0.032484374999999996 -0.0012499999999999998 0.0005906250000000009 1.6527713201673758e-144
76 1 -0.032484374999999996 -0.0012499999999999998 0.0017718750000000026 1.1848123817809589e-67
77 1 -0.032484374999999996 -0.0012499999999999998 0.0029531250000000044 3.2433619386308235e-93
78 1 -0.032484374999999996 -0.0012499999999999998 0.004134374999999999 0.0
79 1 -0.032484374999999996 -0.0012499999999999998 0.005315625000000001 0.0
80 1 -0.032484374999999996 -0.0012499999999999998 0.006496875000000003 0.0
81 1 -0.032484374999999996 -0.0012499999999999998 0.0076781249999999975 0.0
82 1 -0.032484374999999996 -0.0012499999999999998 0.008859375 3.1490822606315216e-214
83 1 -0.032484374999999996 -0.0012499999999999998 0.010040625000000001 0.0
84 1 -0.032484374999999996 -0.0012499999999999998 0.011221875000000003 0.0
85 1 -0.032484374999999996 -0.0012499999999999998 0.012403125000000004 4.367325329804914e-242
86 1 -0.032484374999999996 -0.0012499999999999998 0.013584375 0.0
87 1 -0.032484374999999996 -0.0012499999999999998 0.014765625000000001 0.0
88 1 -0.032484374999999996 -0.0012499999999999998 0.015946875000000003 0.0
89 1 -0.032484374999999996 -0.0012499999999999998 0.017128124999999998 1.1824947330583458e-105
90 1 -0.032484374999999996 -0.0012499999999999998 0.018309375 1.5258930112468122e-162
91 1 -0.031303125 -0.0012499999999999998 -0.019490625 0.0
92 1 -0.031303125 -0.0012499999999999998 -0.018309375 0.0
93 1 -0.031303125 -0.0012499999999999998 -0.017128124999999998 0.0
94 1 -0.031303125 -0.0012499999999999998 -0.015946875 8.26144755838547e-208
95 1 -0.031303125 -0.0012499999999999998 -0.014765625000000001 0.0
96 1 -0.031303125 -0.0012499999999999998 -0.013584375 0.0
97 1 -0.031303125 -0.0012499999999999998 -0.012403124999999997 0.0
98 1 -0.031303125 -0.0012499999999999998 -0.011221875 2.669030194124557e-93
99 1 -0.031303125 -0.0012499999999999998 -0.010040625000000001 0.0
100 1 -0.031303125 -0.0012499999999999998 -0.008859375 0.0
101 1 -0.031303125 -0.0012499999999999998 -0.0076781249999999975 0.0
102 1 -0.031303125 -0.0012499999999999998 -0.006496874999999999 0.0
103 1 -0.031303125 -0.0012499999999999998 -0.005315625000000001 0.0
104 1 -0.031303125 -0.0012499999999999998 -0.004134374999999999 0.0
105 1 -0.031303125 -0.0012499999999999998 -0.0029531249999999974 0.0
106 1 -0.031303125 -0.0012499999999999998 -0.0017718750000000026 1.1942376498644173e-176
107 1 -0.031303125 -0.0012499999999999998 -0.0005906250000000009 6.798502409812633e-298
108 1 -0.031303125 -0.0012499999999999998 0.0005906250000000009 6.761459024221416e-198
109 1 -0.031303125 -0.0012499999999999998 0.0017718750000000026 0.0
110 1 -0.031303125 -0.0012499999999999998 0.0029531250000000044 1.4512945563744337e-109
111 1 -0.031303125 -0.0012499999999999998 0.004134374999999999 0.0
112 1 -0.031303125 -0.0012499999999999998 0.005315625000000001 4.17819644347391e-254
113 1 -0.031303125 -0.0012499999999999998 0.006496875000000003 0.0
114 1 -0.031303125 -0.0012499999999999998 0.0076781249999999975 0.0
115 1 -0.031303125 -0.0012499999999999998 0.008859375 0.0
116 1 -0.031303125 -0.0012499999999999998 0.010040625000000001 0.0
117 1 -0.031303125 -0.0012499999999999998 0.011221875000000003 0.0
118 1 -0.031303125 -0.0012499999999999998 0.012403125000000004 0.0
119 1 -0.031303125 -0.0012499999999999998 0.013584375 0.0
120 1 -0.031303125 -0.0012499999999999998 0.014765625000000001 0.0
121 1 -0.031303125 -0.0012499999999999998 0.015946875000000003 0.0
122 1 -0.031303125 -0.0012499999999999998 0.017128124999999998 0.0
123 1 -0.031303125 -0.0012499999999999998 0.018309375 0.0
124 1 -0.031303125 -0.0012499999999999998 0.019490625 0.0
125 1 -0.030121875 -0.0012499999999999998 -0.020671875 0.0
126 1 -0.030121875 -0.0012499999999999998 -0.019490625 0.0
127 1 -0.030121875 -0.0012499999999999998 -0.018309375 0.0
128 1 -0.030121875 -0.0012499999999999998 -0.017128124999999998 0.0
129 1 -0.030121875 -0.0012499999999999998 -0.015946875 0.0
130 1 -0.030121875 -0.0012499999999999998 -0.014765625000000001 0.0
131 1 -0.030121875 -0.0012499999999999998 -0.013584375 0.0
132 1 -0.030121875 -0.0012499999999999998 -0.012403124999999997 0.0
133 1 -0.030121875 -0.0012499999999999998 -0.011221875 0.0
134 1 -0.030121875 -0.0012499999999999998 -0.010040625000000001 3.456042482569216e-293
135 1 -0.030121875 -0.0012499999999999998 -0.008859375 0.0
136 1 -0.030121875 -0.0012499999999999998 -0.0076781249999999975 0.0
137 1 -0.030121875 -0.0012499999999999998 -0.006496874999999999 0.0
138 1 -0.030121875 -0.0012499999999999998 -0.005315625000000001 0.0
139 1 -0.030121875 -0.0012499999999999998 -0.004134374999999999 2.4763696343059145e-88
140 1 -0.030121875 -0.0012499999999999998 -0.0029531249999999974 0.0
141 1 -0.030121875 -0.0012499999999999998 -0.0017718750000000026 1.1534239708357803e-110
142 1 -0.030121875 -0.0012499999999999998 -0.0005906250000000009 6.895524445731207e-192
143 1 -0.030121875 -0.0012499999999999998 0.0005906250000000009 6.839471670514498e-267
144 1 -0.030121875 -0.0012499999999999998 0.0017718750000000026 2.7251334283581873e-221
145 1 -0.030121875 -0.0012499999999999998 0.0029531250000000044 0.0
146 1 -0.030121875 -0.0012499999999999998 0.004134374999999999 0.0
147 1 -0.030121875 -0.0012499999999999998 0.005315625000000001 0.0
148 1 -0.030121875 -0.0012499999999999998 0.006496875000000003 0.0
149 1 -0.030121875 -0.0012499999999999998 0.0076781249999999975 0.0
150 1 -0.030121875 -0.0012499999999999998 0.008859375 0.0
151 1 -0.030121875 -0.0012499999999999998 0.010040625000000001 6.560408620283586e-284
152 1 -0.030121875 -0.0012499999999999998 0.011221875000000003 0.0
153 1 -0.030121875 -0.0012499999999999998 0.012403125000000004 0.0
154 1 -0.030121875 -0.0012499999999999998 0.013584375 0.0
155 1 -0.030121875 -0.0012499999999999998 0.014765625000000001 0.0
156 1 -0.030121875 -0.0012499999999999998 0.015946875000000003 1.9999594819041082e-263
157 1 -0.030121875 -0.0012499999999999998 0.017128124999999998 0.0
158 1 -0.030121875 -0.0012499999999999998 0.018309375 0.0
159 1 -0.030121875 -0.0012499999999999998 0.019490625 0.0
160 1 -0.030121875 -0.0012499999999999998 0.020671875000000003 0.0
161 1 -0.028940625 -0.0012499999999999998 -0.021853124999999998 0.0
162 1 -0.028940625 -0.0012499999999999998 -0.020671875 1.477733088398221e-281
163 1 -0.028940625 -0.0012499999999999998 -0.019490625 0.0
164 1 -0.028940625 -0.0012499999999999998 -0.018309375 0.0
165 1 -0.028940625 -0.0012499999999999998 -0.017128124999999998 0.0
166 1 -0.028940625 -0.0012499999999999998 -0.015946875 0.0
167 1 -0.028940625 -0.0012499999999999998 -0.014765625000000001 0.0
168 1 -0.028940625 -0.0012499999999999998 -0.013584375 0.0
169 1 -0.028940625 -0.0012499999999999998 -0.012403124999999997 0.0
170 1 -0.028940625 -0.0012499999999999998 -0.011221875 0.0
171 1 -0.028940625 -0.0012499999999999998 -0.010040625000000001 2.7995009503739953e-274
172 1 -0.028940625 -0.0012499999999999998 -0.008859375 0.0
173 1 -0.028940625 -0.0012499999999999998 -0.0076781249999999975 2.4694369439178926e-241
174 1 -0.028940625 -0.0012499999999999998 -0.006496874999999999 7.473271261424366e-266
175 1 -0.028940625 -0.0012499999999999998 -0.005315625000000001 0.0
176 1 -0.028940625 -0.0012499999999999998 -0.004134374999999999 0.0
177 1 -0.028940625 -0.0012499999999999998 -0.0029531249999999974 1.7523495669620325e-108
178 1 -0.028940625 -0.0012499999999999998 -0.0017718750000000026 4.9408291850100503e-228
179 1 -0.028940625 -0.0012499999999999998 -0.0005906250000000009 3.8444243121735586e-290
180 1 -0.028940625 -0.0012499999999999998 0.0005906250000000009 0.0
181 1 -0.028940625 -0.0012499999999999998 0.0017718750000000026 0.0
182 1 -0.028940625 -0.0012499999999999998 0.0029531250000000044 0.0
183 1 -0.028940625 -0.0012499999999999998 0.004134374999999999 0.0
184 1 -0.028940625 -0.0012499999999999998 0.005315625000000001 0.0
185 1 -0.028940625 -0.0012499999999999998 0.006496875000000003 0.0
186 1 -0.028940625 -0.0012499999999999998 0.0076781249999999975 0.0
187 1 -0.028940625 -0.0012499999999999998 0.008859375 0.0
188 1 -0.028940625 -0.0012499999999999998 0.010040625000000001 0.0
189 1 -0.028940625 -0.0012499999999999998 0.011221875000000003 0.0
190 1 -0.028940625 -0.0012499999999999998 0.012403125000000004 0.0
191 1 -0.028940625 -0.0012499999999999998 0.013584375 0.0
192 1 -0.028940625 -0.0012499999999999998 0.014765625000000001 0.0
193 1 -0.028940625 -0.0012499999999999998 0.015946875000000003 0.0
194 1 -0.028940625 -0.0012499999999999998 0.017128124999999998 0.0
195 1 -0.028940625 -0.0012499999999999998 0.018309375 0.0
196 1 -0.028940625 -0.0012499999999999998 0.019490625 0.0
197 1 -0.028940625 -0.0012499999999999998 0.020671875000000003 0.0
198 1 -0.028940625 -0.0012499999999999998 0.021853125000000004 0.0
199 1 -0.027759375 -0.0012499999999999998 -0.024215625 0.0
200 1 -0.027759375 -0.0012499999999999998 -0.023034375 0.0
201 1 -0.027759375 -0.0012499999999999998 -0.021853124999999998 9.757712953467783e-57
202 1 -0.027759375 -0.0012499999999999998 -0.020671875 0.0
203 1 -0.027759375 -0.0012499999999999998 -0.019490625 0.0
204 1 -0.027759375 -0.0012499999999999998 -0.018309375 0.0
205 1 -0.027759375 -0.0012499999999999998 -0.017128124999999998 0.0
206 1 -0.027759375 -0.0012499999999999998 -0.015946875 0.0
207 1 -0.027759375 -0.0012499999999999998 -0.014765625000000001 6.62975477904099e-146
208 1 -0.027759375 -0.0012499999999999998 -0.013584375 0.0
209 1 -0.027759375 -0.0012499999999999998 -0.012403124999999997 5.493353177718502e-52
210 1 -0.027759375 -0.0012499999999999998 -0.011221875 0.0
211 1 -0.027759375 -0.0012499999999999998 -0.010040625000000001 8.339352652091346e-63
212 1 -0.027759375 -0.0012499999999999998 -0.008859375 1.0481810548699126e-149
213 1 -0.027759375 -0.0012499999999999998 -0.0076781249999999975 0.0
214 1 -0.027759375 -0.0012499999999999998 -0.006496874999999999 0.0
215 1 -0.027759375 -0.0012499999999999998 -0.005315625000000001 5.999101478426539e-141
216 1 -0.027759375 -0.0012499999999999998 -0.004134374999999999 2.4652278696261153e-128
217 1 -0.027759375 -0.0012499999999999998 -0.0029531249999999974 3.5475664938972524e-91
218 1 -0.027759375 -0.0012499999999999998 -0.0017718750000000026 7.617761323918318e-66
219 1 -0.027759375 -0.0012499999999999998 -0.0005906250000000009 6.1877463218133355e-61
220 1 -0.027759375 -0.0012499999999999998 0.0005906250000000009 1.2553319658988522e-69
221 1 -0.027759375 -0.0012499999999999998 0.0017718750000000026 9.34474327466888e-210
222 1 -0.027759375 -0.0012499999999999998 0.0029531250000000044 2.155881207496003e-106
223 1 -0.027759375 -0.0012499999999999998 0.004134374999999999 7.804676259848846e-294
224 1 -0.027759375 -0.0012499999999999998 0.005315625000000001 1.5328313095841252e-189
225 1 -0.027759375 -0.0012499999999999998 0.006496875000000003 7.842270787819005e-74
226 1 -0.027759375 -0.0012499999999999998 0.0076781249999999975 1.8708425110724e-85
227 1 -0.027759375 -0.0012499999999999998 0.008859375 1.8188938359642006e-104
228 1 -0.027759375 -0.0012499999999999998 0.010040625000000001 3.6485870014006806e-246
229 1 -0.027759375 -0.0012499999999999998 0.011221875000000003 3.79539697596175e-250
230 1 -0.027759375 -0.0012499999999999998 0.012403125000000004 0.0
231 1 -0.027759375 -0.0012499999999999998 0.013584375 0.0
232 1 -0.027759375 -0.0012499999999999998 0.014765625000000001 0.0
233 1 -0.027759375 -0.0012499999999999998 0.015946875000000003 0.0
234 1 -0.027759375 -0.0012499999999999998 0.017128124999999998 0.0
235 1 -0.027759375 -0.0012499999999999998 0.018309375 0.0
236 1 -0.027759375 -0.0012499999999999998 0.019490625 0.0
237 1 -0.027759375 -0.0012499999999999998 0.020671875000000003 0.0
238 1 -0.027759375 -0.0012499999999999998 0.021853125000000004 0.0
239 1 -0.027759375 -0.0012499999999999998 0.023034375 1.1813539477536407e-212
240 1 -0.027759375 -0.0012499999999999998 0.024215625 0.0
241 1 -0.026578124999999998 -0.0012499999999999998 -0.026578124999999998 0.0
242 1 -0.026578124999999998 -0.0012499999999999998 -0.025396875 0.0
243 1 -0.026578124999999998 -0.0012499999999999998 -0.024215625 0.0
244 1 -0.026578124999999998 -0.0012499999999999998 -0.023034375 0.0
245 1 -0.026578124999999998 -0.0012499999999999998 -0.021853124999999998 4.434604877757683e-133
246 1 -0.026578124999999998 -0.0012499999999999998 -0.020671875 5.602803058661111e-281
247 1 -0.026578124999999998 -0.0012499999999999998 -0.019490625 0.0
248 1 -0.026578124999999998 -0.0012499999999999998 -0.018309375 0.0
249 1 -0.026578124999999998 -0.0012499999999999998 -0.017128124999999998 0.0
250 1 -0.026578124999999998 -0.0012499999999999998 -0.015946875 3.197668694966812e-146
251 1 -0.026578124999999998 -0.0012499999999999998 -0.014765625000000001 0.0
252 1 -0.026578124999999998 -0.0012499999999999998 -0.013584375 9.111127967139996e-235
253 1 -0.026578124999999998 -0.0012499999999999998 -0.012403124999999997 1.574562615236115e-88
254 1 -0.026578124999999998 -0.0012499999999999998 -0.011221875 3.0270093288304247e-65
255 1 -0.026578124999999998 -0.0012499999999999998 -0.010040625000000001 2.65819430686292e-63
256 1 -0.026578124999999998 -0.0012499999999999998 -0.008859375 1.4335656559313841e-64
257 1 -0.026578124999999998 -0.0012499999999999998 -0.0076781249999999975 3.1628156309296416e-67
258 1 -0.026578124999999998 -0.0012499999999999998 -0.006496874999999999 7.761571630455142e-186
259 1 -0.026578124999999998 -0.0012499999999999998 -0.005315625000000001 2.0436468671837972e-64
260 1 -0.026578124999999998 -0.0012499999999999998 -0.004134374999999999 5.205022250289675e-59
261 1 -0.026578124999999998 -0.0012499999999999998 -0.0029531249999999974 3.5169933185264072e-40
262 1 -0.026578124999999998 -0.0012499999999999998 -0.0017718750000000026 6.731707861489036e-60
263 1 -0.026578124999999998 -0.0012499999999999998 -0.0005906250000000009 2.174462379410546e-31
264 1 -0.026578124999999998 -0.0012499999999999998 0.0005906250000000009 2.3116035457808332e-21
265 1 -0.026578124999999998 -0.0012499999999999998 0.0017718750000000026 2.4064962763631567e-80
266 1 -0.026578124999999998 -0.0012499999999999998 0.0029531250000000044 2.597511009761141e-75
267 1 -0.026578124999999998 -0.0012499999999999998 0.004134374999999999 8.060029389274342e-76
268 1 -0.026578124999999998 -0.0012499999999999998 0.005315625000000001 2.517798357505951e-49
269 1 -0.026578124999999998 -0.0012499999999999998 0.006496875000000003 3.1146097389697635e-97
270 1 -0.026578124999999998 -0.0012499999999999998 0.0076781249999999975 6.348798987775448e-40
271 1 -0.026578124999999998 -0.0012499999999999998 0.008859375 3.398953047462702e-174
272 1 -0.026578124999999998 -0.0012499999999999998 0.010040625000000001 1.229017692127036e-125
273 1 -0.026578124999999998 -0.0012499999999999998 0.011221875000000003 0.0
274 1 -0.026578124999999998 -0.0012499999999999998 0.012403125000000004 1.1448013515579533e-95
275 1 -0.026578124999999998 -0.0012499999999999998 0.013584375 6.262383664681002e-264
276 1 -0.026578124999999998 -0.0012499999999999998 0.014765625000000001 0.0
277 1 -0.026578124999999998 -0.0012499999999999998 0.015946875000000003 0.0
278 1 -0.026578124999999998 -0.0012499999999999998 0.017128124999999998 8.681754891188635e-125
279 1 -0.026578124999999998 -0.0012499999999999998 0.018309375 0.0
280 1 -0.026578124999999998 -0.0012499999999999998 0.019490625 4.178646040314573e-148
281 1 -0.026578124999999998 -0.0012499999999999998 0.020671875000000003 9.349306502640876e-208
282 1 -0.026578124999999998 -0.0012499999999999998 0.021853125000000004 5.538220304596055e-280
283 1 -0.026578124999999998 -0.0012499999999999998 0.023034375 0.0
284 1 -0.026578124999999998 -0.0012499999999999998 0.024215625 0.0
285 1 -0.026578124999999998 -0.0012499999999999998 0.025396875000000003 0.0
286 1 -0.026578124999999998 -0.0012499999999999998 0.026578124999999998 0.0
287 1 -0.025396875 -0.0012499999999999998 -0.026578124999999998 0.0
288 1 -0.025396875 -0.0012499999999999998 -0.025396875 0.0
289 1 -0.025396875 -0.0012499999999999998 -0.024215625 0.0
290 1 -0.025396875 -0.0012499999999999998 -0.023034375 0.0
291 1 -0.025396875 -0.0012499999999999998 -0.021853124999999998 6.621423786610245e-236
292 1 -0.025396875 -0.0012499999999999998 -0.020671875 1.0630691416624905e-253
293 1 -0.025396875 -0.0012499999999999998 -0.019490625 2.9066276067499023e-171
294 1 -0.025396875 -0.0012499999999999998 -0.018309375 0.0
295 1 -0.025396875 -0.0012499999999999998 -0.017128124999999998 4.16587725341392e-141
296 1 -0.025396875 -0.0012499999999999998 -0.015946875 2.918723512088717e-277
297 1 -0.025396875 -0.0012499999999999998 -0.014765625000000001 0.0
298 1 -0.025396875 -0.0012499999999999998 -0.013584375 4.246376092176009e-143
299 1 -0.025396875 -0.0012499999999999998 -0.012403124999999997 5.247609004551745e-62
300 1 -0.025396875 -0.0012499999999999998 -0.011221875 2.879034106560843e-29
301 1 -0.025396875 -0.0012499999999999998 -0.010040625000000001 1.2701582971013786e-80
302 1 -0.025396875 -0.0012499999999999998 -0.008859375 1.9279159189718486e-74
303 1 -0.025396875 -0.0012499999999999998 -0.0076781249999999975 1.965412590237376e-31
304 1 -0.025396875 -0.0012499999999999998 -0.006496874999999999 1.2782433729502757e-35
305 1 -0.025396875 -0.0012499999999999998 -0.005315625000000001 1.835560750029142e-67
306 1 -0.025396875 -0.0012499999999999998 -0.004134374999999999 9.96179825446647e-50
307 1 -0.025396875 -0.0012499999999999998 -0.0029531249999999974 1.3186094583373697e-46
308 1 -0.025396875 -0.0012499999999999998 -0.0017718750000000026 9.135410045390014e-27
309 1 -0.025396875 -0.0012499999999999998 -0.0005906250000000009 1.3100279159429287e-32
310 1 -0.025396875 -0.0012499999999999998 0.0005906250000000009 1.569169416148151e-25
311 1 -0.025396875 -0.0012499999999999998 0.0017718750000000026 1.8581649962283007e-28
312 1 -0.025396875 -0.0012499999999999998 0.0029531250000000044 4.115623978990629e-34
313 1 -0.025396875 -0.0012499999999999998 0.004134374999999999 6.958610377451e-36
314 1 -0.025396875 -0.0012499999999999998 0.005315625000000001 6.688072652795027e-18
315 1 -0.025396875 -0.0012499999999999998 0.006496875000000003 3.1650420300105426e-23
316 1 -0.025396875 -0.0012499999999999998 0.0076781249999999975 6.5346823411256126e-37
317 1 -0.025396875 -0.0012499999999999998 0.008859375 3.886018158352421e-57
318 1 -0.025396875 -0.0012499999999999998 0.010040625000000001 3.6938030351375565e-62
319 1 -0.025396875 -0.0012499999999999998 0.011221875000000003 6.3121157604708486e-102
320 1 -0.025396875 -0.0012499999999999998 0.012403125000000004 1.9041245287438314e-63
321 1 -0.025396875 -0.0012499999999999998 0.013584375 1.3404688069677173e-57
322 1 -0.025396875 -0.0012499999999999998 0.014765625000000001 5.706170860936427e-194
323 1 -0.025396875 -0.0012499999999999998 0.015946875000000003 3.271471348720559e-83
324 1 -0.025396875 -0.0012499999999999998 0.017128124999999998 1.7259186481495995e-135
325 1 -0.025396875 -0.0012499999999999998 0.018309375 3.4809910170650435e-207
326 1 -0.025396875 -0.0012499999999999998 0.019490625 0.0
327 1 -0.025396875 -0.0012499999999999998 0.020671875000000003 0.0
328 1 -0.025396875 -0.0012499999999999998 0.021853125000000004 0.0
329 1 -0.025396875 -0.0012499999999999998 0.023034375 0.0
330 1 -0.025396875 -0.0012499999999999998 0.024215625 0.0
331 1 -0.025396875 -0.0012499999999999998 0.025396875000000003 0.0
332 1 -0.025396875 -0.0012499999999999998 0.026578124999999998 0.0
333 1 -0.024215625 -0.0012499999999999998 -0.027759375 0.0
334 1 -0.024215625 -0.0012499999999999998 -0.026578124999999998 0.0
335 1 -0.024215625 -0.0012499999999999998 -0.025396875 0.0
336 1 -0.024215625 -0.0012499999999999998 -0.024215625 0.0
337 1 -0.024215625 -0.0012499999999999998 -0.023034375 0.0
338 1 -0.024215625 -0.0012499999999999998 -0.021853124999999998 0.0
339 1 -0.024215625 -0.0012499999999999998 -0.020671875 1.9459323530091775e-151
340 1 -0.024215625 -0.0012499999999999998 -0.019490625 1.4120747587110004e-153
341 1 -0.024215625 -0.0012499999999999998 -0.018309375 1.0508064380152999e-259
342 1 -0.024215625 -0.0012499999999999998 -0.017128124999999998 1.019282487716857e-171
343 1 -0.024215625 -0.0012499999999999998 -0.015946875 2.0414061705007867e-102
344 1 -0.024215625 -0.0012499999999999998 -0.014765625000000001 7.307093253249437e-52
345 1 -0.024215625 -0.0012499999999999998 -0.013584375 2.17551898557093e-146
346 1 -0.024215625 -0.0012499999999999998 -0.012403124999999997 1.1937893021416843e-81
347 1 -0.024215625 -0.0012499999999999998 -0.011221875 2.944954512018619e-26
348 1 -0.024215625 -0.0012499999999999998 -0.010040625000000001 2.426606069086848e-49
349 1 -0.024215625 -0.0012499999999999998 -0.008859375 1.0289888928328125e-46
350 1 -0.024215625 -0.0012499999999999998 -0.0076781249999999975 3.282581207680282e-107
351 1 -0.024215625 -0.0012499999999999998 -0.006496874999999999 9.654106318501883e-38
352 1 -0.024215625 -0.0012499999999999998 -0.005315625000000001 2.923718447065996e-29
353 1 -0.024215625 -0.0012499999999999998 -0.004134374999999999 4.249730379715409e-37
354 1 -0.024215625 -0.0012499999999999998 -0.0029531249999999974 5.54578460798186e-40
355 1 -0.024215625 -0.0012499999999999998 -0.0017718750000000026 2.9717238112456444e-21
356 1 -0.024215625 -0.0012499999999999998 -0.0005906250000000009 4.880267414639459e-28
357 1 -0.024215625 -0.0012499999999999998 0.0005906250000000009 8.838695177635183e-33
358 1 -0.024215625 -0.0012499999999999998 0.0017718750000000026 5.809150507125832e-20
359 1 -0.024215625 -0.0012499999999999998 0.0029531250000000044 2.7344588352878763e-43
360 1 -0.024215625 -0.0012499999999999998 0.004134374999999999 3.568262250316296e-26
361 1 -0.024215625 -0.0012499999999999998 0.005315625000000001 5.837312029250356e-35
362 1 -0.024215625 -0.0012499999999999998 0.006496875000000003 3.8448269099383835e-22
363 1 -0.024215625 -0.0012499999999999998 0.0076781249999999975 9.230736770881273e-36
364 1 -0.024215625 -0.0012499999999999998 0.008859375 1.1271617314252776e-20
365 1 -0.024215625 -0.0012499999999999998 0.010040625000000001 1.2224777771591389e-46
366 1 -0.024215625 -0.0012499999999999998 0.011221875000000003 2.2638211425999082e-59
367 1 -0.024215625 -0.0012499999999999998 0.012403125000000004 2.2828062730919877e-58
368 1 -0.024215625 -0.0012499999999999998 0.013584375 1.1999908275996805e-102
369 1 -0.024215625 -0.0012499999999999998 0.014765625000000001 7.08039914372938e-172
370 1 -0.024215625 -0.0012499999999999998 0.015946875000000003 7.744996370972132e-125
371 1 -0.024215625 -0.0012499999999999998 0.017128124999999998 3.016624554846636e-92
372 1 -0.024215625 -0.0012499999999999998 0.018309375 7.767262508283387e-108
373 1 -0.024215625 -0.0012499999999999998 0.019490625 0.0
374 1 -0.024215625 -0.0012499999999999998 0.020671875000000003 0.0
375 1 -0.024215625 -0.0012499999999999998 0.021853125000000004 0.0
376 1 -0.024215625 -0.0012499999999999998 0.023034375 0.0
377 1 -0.024215625 -0.0012499999999999998 0.024215625 0.0
378 1 -0.024215625 -0.0012499999999999998 0.025396875000000003 0.0
379 1 -0.024215625 -0.0012499999999999998 0.026578124999999998 0.0
380 1 -0.024215625 -0.0012499999999999998 0.027759375000000006 0.0
381 1 -0.023034375 -0.0012499999999999998 -0.027759375 0.0
382 1 -0.023034375 -0.0012499999999999998 -0.026578124999999998 0.0
383 1 -0.023034375 -0.0012499999999999998 -0.025396875 0.0
384 1 -0.023034375 -0.0012499999999999998 -0.024215625 0.0
385 1 -0.023034375 -0.0012499999999999998 -0.023034375 0.0
386 1 -0.023034375 -0.0012499999999999998 -0.021853124999999998 0.0
387 1 -0.023034375 -0.0012499999999999998 -0.020671875 1.3128689498143722e-52
388 1 -0.023034375 -0.0012499999999999998 -0.019490625 5.641796684692667e-74