ITEM: TIMESTEP
0
ITEM: NUMBER OF ATOMS
3080
ITEM: BOX BOUNDS ss ss ss
-3.7007399999999996e-02 3.7007399999999996e-02
-2.0002499999999999e-03 2.5000000000000004e-07
-3.7007399999999996e-02 3.7007399999999996e-02
ITEM: ATOMS id type x y z c_1
0 1 -0.037209375 -0.00125 -0.000590625 0.438569520166
1 1 -0.036028125 -0.00125 -0.007678125 3.50430409011e-55
2 1 -0.036028125 -0.00125 -0.006496875 0.0
3 1 -0.036028125 -0.00125 -0.005315625 0.0
4 1 -0.036028125 -0.00125 -0.004134375 0.0
5 1 -0.036028125 -0.00125 -0.002953125 0.0
6 1 -0.036028125 -0.00125 -0.001771875 1.84652412003e-142
7 1 -0.036028125 -0.00125 -0.000590625 1.7867772177e-67
8 1 -0.036028125 -0.00125 0.000590625 1.8725192031e-161
9 1 -0.036028125 -0.00125 0.001771875 6.32986381755e-161
10 1 -0.036028125 -0.00125 0.002953125 1.95477469661e-226
11 1 -0.036028125 -0.00125 0.004134375 8.6775692885e-233
12 1 -0.036028125 -0.00125 0.005315625 0.0
13 1 -0.036028125 -0.00125 0.006496875 0.0
14 1 -0.036028125 -0.00125 0.007678125 4.12591809786e-136
15 1 -0.034846875 -0.00125 -0.011221875 3.41794362868e-131
16 1 -0.034846875 -0.00125 -0.010040625 2.21859175342e-187
17 1 -0.034846875 -0.00125 -0.008859375 1.54531877039e-66
18 1 -0.034846875 -0.00125 -0.007678125 6.23886364738e-81
19 1 -0.034846875 -0.00125 -0.006496875 0.0
20 1 -0.034846875 -0.00125 -0.005315625 0.0
21 1 -0.034846875 -0.00125 -0.004134375 0.0
22 1 -0.034846875 -0.00125 -0.002953125 0.0
23 1 -0.034846875 -0.00125 -0.001771875 0.0
24 1 -0.034846875 -0.00125 -0.000590625 0.0
25 1 -0.034846875 -0.00125 0.000590625 0.0
26 1 -0.034846875 -0.00125 0.001771875 0.0
27 1 -0.034846875 -0.00125 0.002953125 0.0
28 1 -0.034846875 -0.00125 0.004134375 1.32845190616e-162
29 1 -0.034846875 -0.00125 0.005315625 0.0
30 1 -0.034846875 -0.00125 0.006496875 0.0
31 1 -0.034846875 -0.00125 0.007678125 7.93928065846e-103
32 1 -0.034846875 -0.00125 0.008859375 5.80836314676e-62
33 1 -0.034846875 -0.00125 0.010040625 9.08081437996e-277
34 1 -0.034846875 -0.00125 0.011221875 6.21112479542e-136
35 1 -0.033665625 -0.00125 -0.013584375 1.17291370862e-68
36 1 -0.033665625 -0.00125 -0.012403125 2.22112040505e-15
37 1 -0.033665625 -0.00125 -0.011221875 1.20607717021e-43
38 1 -0.033665625 -0.00125 -0.010040625 1.02373454687e-208
39 1 -0.033665625 -0.00125 -0.008859375 1.77413602724e-152
40 1 -0.033665625 -0.00125 -0.007678125 6.00933333165e-153
41 1 -0.033665625 -0.00125 -0.006496875 0.0
42 1 -0.033665625 -0.00125 -0.005315625 0.0
43 1 -0.033665625 -0.00125 -0.004134375 0.0
44 1 -0.033665625 -0.00125 -0.002953125 0.0
45 1 -0.033665625 -0.00125 -0.001771875 0.0
46 1 -0.033665625 -0.00125 -0.000590625 0.0
47 1 -0.033665625 -0.00125 0.000590625 0.0
48 1 -0.033665625 -0.00125 0.001771875 0.0
49 1 -0.033665625 -0.00125 0.002953125 0.0
50 1 -0.033665625 -0.00125 0.004134375 8.91404864885e-124
51 1 -0.033665625 -0.00125 0.005315625 0.0
52 1 -0.033665625 -0.00125 0.006496875 0.0
53 1 -0.033665625 -0.00125 0.007678125 1.05430833074e-183
54 1 -0.033665625 -0.00125 0.008859375 1.94640138651e-154
55 1 -0.033665625 -0.00125 0.010040625 1.0100965955e-152
56 1 -0.033665625 -0.00125 0.011221875 5.39525086383e-47
57 1 -0.033665625 -0.00125 0.012403125 1.59844631096e-43
58 1 -0.033665625 -0.00125 0.013584375 2.08763118477e-131
59 1 -0.032484375 -0.00125 -0.018309375 9.93878220755e-53
60 1 -0.032484375 -0.00125 -0.017128125 5.87339012489e-45
61 1 -0.032484375 -0.00125 -0.015946875 1.52776118183e-48
62 1 -0.032484375 -0.00125 -0.014765625 2.19721884177e-80
63 1 -0.032484375 -0.00125 -0.013584375 1.43643206567e-60
64 1 -0.032484375 -0.00125 -0.012403125 2.5435257287e-19
65 1 -0.032484375 -0.00125 -0.011221875 2.07625133751e-24
66 1 -0.032484375 -0.00125 -0.010040625 1.17981305074e-121
67 1 -0.032484375 -0.00125 -0.008859375 1.89889536512e-97
68 1 -0.032484375 -0.00125 -0.007678125 3.12025801102e-73
69 1 -0.032484375 -0.00125 -0.006496875 6.50016313843e-166
70 1 -0.032484375 -0.00125 -0.005315625 0.0
71 1 -0.032484375 -0.00125 -0.004134375 0.0
72 1 -0.032484375 -0.00125 -0.002953125 0.0
73 1 -0.032484375 -0.00125 -0.001771875 0.0
74 1 -0.032484375 -0.00125 -0.000590625 0.0
75 1 -0.032484375 -0.00125 0.000590625 0.0
76 1 -0.032484375 -0.00125 0.001771875 0.0
77 1 -0.032484375 -0.00125 0.002953125 8.74561002133e-229
78 1 -0.032484375 -0.00125 0.004134375 3.55564307639e-99
79 1 -0.032484375 -0.00125 0.005315625 3.3965778698e-219
80 1 -0.032484375 -0.00125 0.006496875 7.09346164797e-258
81 1 -0.032484375 -0.00125 0.007678125 7.53074676712e-155
82 1 -0.032484375 -0.00125 0.008859375 1.28357187995e-170
83 1 -0.032484375 -0.00125 0.010040625 3.69998766921e-268
84 1 -0.032484375 -0.00125 0.011221875 3.91834233661e-93
85 1 -0.032484375 -0.00125 0.012403125 6.39338873335e-101
86 1 -0.032484375 -0.00125 0.013584375 5.72852569767e-288
87 1 -0.032484375 -0.00125 0.014765625 6.11022299366e-203
88 1 -0.032484375 -0.00125 0.015946875 1.0121042178e-54
89 1 -0.032484375 -0.00125 0.017128125 1.57559687444e-45
90 1 -0.032484375 -0.00125 0.018309375 1.10016685527e-35
91 1 -0.031303125 -0.00125 -0.019490625 6.89244498493e-85
92 1 -0.031303125 -0.00125 -0.018309375 1.80702080584e-91
93 1 -0.031303125 -0.00125 -0.017128125 2.96116465912e-147
94 1 -0.031303125 -0.00125 -0.015946875 5.00176616512e-141
95 1 -0.031303125 -0.00125 -0.014765625 9.24016885246e-45
96 1 -0.031303125 -0.00125 -0.013584375 4.8931333868e-74
97 1 -0.031303125 -0.00125 -0.012403125 2.70380074379e-65
98 1 -0.031303125 -0.00125 -0.011221875 9.59482073271e-107
99 1 -0.031303125 -0.00125 -0.010040625 5.56948577899e-124
100 1 -0.031303125 -0.00125 -0.008859375 3.29186485e-200
101 1 -0.031303125 -0.00125 -0.007678125 1.59061718788e-120
102 1 -0.031303125 -0.00125 -0.006496875 1.42677512395e-200
103 1 -0.031303125 -0.00125 -0.005315625 1.33287093608e-169
104 1 -0.031303125 -0.00125 -0.004134375 5.08939186425e-225
105 1 -0.031303125 -0.00125 -0.002953125 2.49961608265e-198
106 1 -0.031303125 -0.00125 -0.001771875 0.0
107 1 -0.031303125 -0.00125 -0.000590625 0.0
108 1 -0.031303125 -0.00125 0.000590625 0.0
109 1 -0.031303125 -0.00125 0.001771875 0.0
110 1 -0.031303125 -0.00125 0.002953125 0.0
111 1 -0.031303125 -0.00125 0.004134375 2.56937018238e-89
112 1 -0.031303125 -0.00125 0.005315625 2.53949115072e-263
113 1 -0.031303125 -0.00125 0.006496875 0.0
114 1 -0.031303125 -0.00125 0.007678125 0.0
115 1 -0.031303125 -0.00125 0.008859375 1.66926871763e-259
116 1 -0.031303125 -0.00125 0.010040625 4.62217615486e-308
117 1 -0.031303125 -0.00125 0.011221875 5.88789908875e-183
118 1 -0.031303125 -0.00125 0.012403125 9.678500469e-230
119 1 -0.031303125 -0.00125 0.013584375 0.0
120 1 -0.031303125 -0.00125 0.014765625 3.31692809066e-265
121 1 -0.031303125 -0.00125 0.015946875 3.90198226072e-249
122 1 -0.031303125 -0.00125 0.017128125 4.6565668982e-123
123 1 -0.031303125 -0.00125 0.018309375 2.4995465802e-49
124 1 -0.031303125 -0.00125 0.019490625 2.64831834692e-76
125 1 -0.030121875 -0.00125 -0.020671875 2.51033277788e-55
126 1 -0.030121875 -0.00125 -0.019490625 1.35163849979e-92
127 1 -0.030121875 -0.00125 -0.018309375 3.01721855266e-126
128 1 -0.030121875 -0.00125 -0.017128125 3.83793828287e-118
129 1 -0.030121875 -0.00125 -0.015946875 4.31585620954e-107
130 1 -0.030121875 -0.00125 -0.014765625 3.80399799392e-140
131 1 -0.030121875 -0.00125 -0.013584375 3.3816527877e-204
132 1 -0.030121875 -0.00125 -0.012403125 1.2454349617e-150
133 1 -0.030121875 -0.00125 -0.011221875 4.74041856863e-184
134 1 -0.030121875 -0.00125 -0.010040625 2.31824029924e-123
135 1 -0.030121875 -0.00125 -0.008859375 4.47705044472e-307
136 1 -0.030121875 -0.00125 -0.007678125 1.90978053906e-304
137 1 -0.030121875 -0.00125 -0.006496875 0.0
138 1 -0.030121875 -0.00125 -0.005315625 4.69636349433e-201
139 1 -0.030121875 -0.00125 -0.004134375 8.31870532755e-122
140 1 -0.030121875 -0.00125 -0.002953125 4.75139865826e-80
141 1 -0.030121875 -0.00125 -0.001771875 5.04852247175e-187
142 1 -0.030121875 -0.00125 -0.000590625 3.76416432553e-261
143 1 -0.030121875 -0.00125 0.000590625 0.0
144 1 -0.030121875 -0.00125 0.001771875 0.0
145 1 -0.030121875 -0.00125 0.002953125 0.0
146 1 -0.030121875 -0.00125 0.004134375 1.18025593335e-112
147 1 -0.030121875 -0.00125 0.005315625 4.84783480358e-197
148 1 -0.030121875 -0.00125 0.006496875 0.0
149 1 -0.030121875 -0.00125 0.007678125 0.0
150 1 -0.030121875 -0.00125 0.008859375 0.0
151 1 -0.030121875 -0.00125 0.010040625 0.0
152 1 -0.030121875 -0.00125 0.011221875 0.0
153 1 -0.030121875 -0.00125 0.012403125 0.0
154 1 -0.030121875 -0.00125 0.013584375 0.0
155 1 -0.030121875 -0.00125 0.014765625 5.77221744529e-204
156 1 -0.030121875 -0.00125 0.015946875 2.61221777344e-172
157 1 -0.030121875 -0.00125 0.017128125 1.53267865858e-146
158 1 -0.030121875 -0.00125 0.018309375 5.34903185539e-99
159 1 -0.030121875 -0.00125 0.019490625 4.64560698747e-131
160 1 -0.030121875 -0.00125 0.020671875 1.50427344885e-65
161 1 -0.028940625 -0.00125 -0.021853125 8.30855664293e-16
162 1 -0.028940625 -0.00125 -0.020671875 9.29937747673e-35
163 1 -0.028940625 -0.00125 -0.019490625 1.71512918758e-47
164 1 -0.028940625 -0.00125 -0.018309375 6.75834381949e-61
165 1 -0.028940625 -0.00125 -0.017128125 3.2640715504e-90
166 1 -0.028940625 -0.00125 -0.015946875 4.4428294356e-174
167 1 -0.028940625 -0.00125 -0.014765625 6.51255658649e-180
168 1 -0.028940625 -0.00125 -0.013584375 8.66536737055e-216
169 1 -0.028940625 -0.00125 -0.012403125 0.0
170 1 -0.028940625 -0.00125 -0.011221875 5.82800547719e-157
171 1 -0.028940625 -0.00125 -0.010040625 3.98466474063e-99
172 1 -0.028940625 -0.00125 -0.008859375 6.68958916782e-183
173 1 -0.028940625 -0.00125 -0.007678125 1.15021441221e-253
174 1 -0.028940625 -0.00125 -0.006496875 1.74288055828e-186
175 1 -0.028940625 -0.00125 -0.005315625 8.2796989315e-100
176 1 -0.028940625 -0.00125 -0.004134375 3.29646063049e-86
177 1 -0.028940625 -0.00125 -0.002953125 1.409620918e-50
178 1 -0.028940625 -0.00125 -0.001771875 6.23921371519e-43
179 1 -0.028940625 -0.00125 -0.000590625 3.46076373991e-66
180 1 -0.028940625 -0.00125 0.000590625 3.89522105655e-147
181 1 -0.028940625 -0.00125 0.001771875 5.78624631262e-138
182 1 -0.028940625 -0.00125 0.002953125 3.01239416036e-120
183 1 -0.028940625 -0.00125 0.004134375 2.98994915538e-158
184 1 -0.028940625 -0.00125 0.005315625 4.74954425536e-167
185 1 -0.028940625 -0.00125 0.006496875 3.40016509579e-203
186 1 -0.028940625 -0.00125 0.007678125 9.46675061209e-279
187 1 -0.028940625 -0.00125 0.008859375 2.88211611442e-255
188 1 -0.028940625 -0.00125 0.010040625 0.0
189 1 -0.028940625 -0.00125 0.011221875 0.0
190 1 -0.028940625 -0.00125 0.012403125 0.0
191 1 -0.028940625 -0.00125 0.013584375 0.0
192 1 -0.028940625 -0.00125 0.014765625 4.93149546712e-193
193 1 -0.028940625 -0.00125 0.015946875 5.2346042873e-93
194 1 -0.028940625 -0.00125 0.017128125 1.11797225196e-82
195 1 -0.028940625 -0.00125 0.018309375 1.13472785178e-89
196 1 -0.028940625 -0.00125 0.019490625 3.73167569245e-81
197 1 -0.028940625 -0.00125 0.020671875 9.46009944981e-64
198 1 -0.028940625 -0.00125 0.021853125 6.10472513445e-37
199 1 -0.027759375 -0.00125 -0.024215625 0.0
200 1 -0.027759375 -0.00125 -0.023034375 0.0
201 1 -0.027759375 -0.00125 -0.021853125 7.03753941064e-103
202 1 -0.027759375 -0.00125 -0.020671875 1.47509290615e-43
203 1 -0.027759375 -0.00125 -0.019490625 8.63718847685e-26
204 1 -0.027759375 -0.00125 -0.018309375 4.78550057722e-45
205 1 -0.027759375 -0.00125 -0.017128125 8.94037857455e-120
206 1 -0.027759375 -0.00125 -0.015946875 7.70023489259e-146
207 1 -0.027759375 -0.00125 -0.014765625 1.57193893518e-101
208 1 -0.027759375 -0.00125 -0.013584375 5.94403491309e-148
209 1 -0.027759375 -0.00125 -0.012403125 5.42461919278e-206
210 1 -0.027759375 -0.00125 -0.011221875 1.09141129159e-83
211 1 -0.027759375 -0.00125 -0.010040625 1.42276735491e-52
212 1 -0.027759375 -0.00125 -0.008859375 9.10823903742e-123
213 1 -0.027759375 -0.00125 -0.007678125 3.79972764391e-135
214 1 -0.027759375 -0.00125 -0.006496875 6.7635983917e-60
215 1 -0.027759375 -0.00125 -0.005315625 9.5418033284e-33
216 1 -0.027759375 -0.00125 -0.004134375 7.00573490993e-26
217 1 -0.027759375 -0.00125 -0.002953125 3.73706852599e-22
218 1 -0.027759375 -0.00125 -0.001771875 6.73434407766e-21
219 1 -0.027759375 -0.00125 -0.000590625 1.51418212234e-38
220 1 -0.027759375 -0.00125 0.000590625 1.00283392591e-76
221 1 -0.027759375 -0.00125 0.001771875 3.11376938527e-112
222 1 -0.027759375 -0.00125 0.002953125 5.53237017156e-69
223 1 -0.027759375 -0.00125 0.004134375 4.58296959486e-48
224 1 -0.027759375 -0.00125 0.005315625 2.04173110175e-106
225 1 -0.027759375 -0.00125 0.006496875 1.66770399949e-68
226 1 -0.027759375 -0.00125 0.007678125 1.32238978557e-70
227 1 -0.027759375 -0.00125 0.008859375 6.2121559023e-61
228 1 -0.027759375 -0.00125 0.010040625 1.11709015082e-120
229 1 -0.027759375 -0.00125 0.011221875 6.5301441457e-187
230 1 -0.027759375 -0.00125 0.012403125 2.23940843785e-202
231 1 -0.027759375 -0.00125 0.013584375 9.50087818347e-240
232 1 -0.027759375 -0.00125 0.014765625 1.91788799061e-225
233 1 -0.027759375 -0.00125 0.015946875 1.11999857572e-91
234 1 -0.027759375 -0.00125 0.017128125 4.85016644505e-97
235 1 -0.027759375 -0.00125 0.018309375 3.39795901947e-84
236 1 -0.027759375 -0.00125 0.019490625 2.2033236282e-86
237 1 -0.027759375 -0.00125 0.020671875 2.63598000246e-57
238 1 -0.027759375 -0.00125 0.021853125 2.74825945028e-66
239 1 -0.027759375 -0.00125 0.023034375 1.23048820706e-99
240 1 -0.027759375 -0.00125 0.024215625 2.55873527193e-190
241 1 -0.026578125 -0.00125 -0.026578125 0.0
242 1 -0.026578125 -0.00125 -0.025396875 0.0
243 1 -0.026578125 -0.00125 -0.024215625 0.0
244 1 -0.026578125 -0.00125 -0.023034375 0.0
245 1 -0.026578125 -0.00125 -0.021853125 0.0
246 1 -0.026578125 -0.00125 -0.020671875 9.01118536302e-125
247 1 -0.026578125 -0.00125 -0.019490625 1.71346791977e-37
248 1 -0.026578125 -0.00125 -0.018309375 3.91370151909e-39
249 1 -0.026578125 -0.00125 -0.017128125 9.4897504847e-36
250 1 -0.026578125 -0.00125 -0.015946875 4.10522543195e-56
251 1 -0.026578125 -0.00125 -0.014765625 6.33642957545e-59
252 1 -0.026578125 -0.00125 -0.013584375 4.26947967353e-129
253 1 -0.026578125 -0.00125 -0.012403125 2.76738728744e-155
254 1 -0.026578125 -0.00125 -0.011221875 1.77436298578e-58
255 1 -0.026578125 -0.00125 -0.010040625 1.85983312965e-29
256 1 -0.026578125 -0.00125 -0.008859375 4.63038261144e-48
257 1 -0.026578125 -0.00125 -0.007678125 9.15706772524e-44
258 1 -0.026578125 -0.00125 -0.006496875 8.50383841542e-24
259 1 -0.026578125 -0.00125 -0.005315625 9.99674110917e-14
260 1 -0.026578125 -0.00125 -0.004134375 1.25451293451e-16
261 1 -0.026578125 -0.00125 -0.002953125 3.874826782e-18
262 1 -0.026578125 -0.00125 -0.001771875 1.81447789455e-19
263 1 -0.026578125 -0.00125 -0.000590625 1.25915992691e-13
264 1 -0.026578125 -0.00125 0.000590625 9.13707845803e-24
265 1 -0.026578125 -0.00125 0.001771875 9.04962424543e-55
266 1 -0.026578125 -0.00125 0.002953125 1.76677818213e-27
267 1 -0.026578125 -0.00125 0.004134375 1.25828610657e-25
268 1 -0.026578125 -0.00125 0.005315625 3.71505613228e-22
269 1 -0.026578125 -0.00125 0.006496875 4.36017064605e-26
270 1 -0.026578125 -0.00125 0.007678125 2.05157616293e-27
271 1 -0.026578125 -0.00125 0.008859375 1.46939286182e-21
272 1 -0.026578125 -0.00125 0.010040625 3.03840760817e-27
273 1 -0.026578125 -0.00125 0.011221875 1.39234389459e-32
274 1 -0.026578125 -0.00125 0.012403125 1.14636922732e-48
275 1 -0.026578125 -0.00125 0.013584375 1.00502828922e-83
276 1 -0.026578125 -0.00125 0.014765625 7.64337868214e-76
277 1 -0.026578125 -0.00125 0.015946875 7.21535421021e-72
278 1 -0.026578125 -0.00125 0.017128125 2.69119073499e-111
279 1 -0.026578125 -0.00125 0.018309375 1.11343398308e-67
280 1 -0.026578125 -0.00125 0.019490625 5.36570220037e-51
281 1 -0.026578125 -0.00125 0.020671875 1.63838051078e-79
282 1 -0.026578125 -0.00125 0.021853125 2.34396480564e-172
283 1 -0.026578125 -0.00125 0.023034375 2.61361346669e-271
284 1 -0.026578125 -0.00125 0.024215625 0.0
285 1 -0.026578125 -0.00125 0.025396875 0.0
286 1 -0.026578125 -0.00125 0.026578125 6.72952713981e-227
287 1 -0.025396875 -0.00125 -0.026578125 0.0
288 1 -0.025396875 -0.00125 -0.025396875 0.0
289 1 -0.025396875 -0.00125 -0.024215625 0.0
290 1 -0.025396875 -0.00125 -0.023034375 0.0
291 1 -0.025396875 -0.00125 -0.021853125 0.0
292 1 -0.025396875 -0.00125 -0.020671875 1.7901161314e-140
293 1 -0.025396875 -0.00125 -0.019490625 4.45827904925e-31
294 1 -0.025396875 -0.00125 -0.018309375 6.60798517122e-64
295 1 -0.025396875 -0.00125 -0.017128125 1.23654325779e-58
296 1 -0.025396875 -0.00125 -0.015946875 3.99051707107e-54
297 1 -0.025396875 -0.00125 -0.014765625 9.92896819473e-62
298 1 -0.025396875 -0.00125 -0.013584375 5.67117813989e-62
299 1 -0.025396875 -0.00125 -0.012403125 1.40524637531e-56
300 1 -0.025396875 -0.00125 -0.011221875 1.88090405959e-33
301 1 -0.025396875 -0.00125 -0.010040625 4.25054402303e-15
302 1 -0.025396875 -0.00125 -0.008859375 6.26080814027e-34
303 1 -0.025396875 -0.00125 -0.007678125 1.47585032038e-34
304 1 -0.025396875 -0.00125 -0.006496875 3.98068114609e-16
305 1 -0.025396875 -0.00125 -0.005315625 1.98531031276e-08
306 1 -0.025396875 -0.00125 -0.004134375 2.97952876432e-07
307 1 -0.025396875 -0.00125 -0.002953125 5.10158174028e-08
308 1 -0.025396875 -0.00125 -0.001771875 1.27806329148e-07
309 1 -0.025396875 -0.00125 -0.000590625 6.23596339875e-07
310 1 -0.025396875 -0.00125 0.000590625 1.01995358628e-07
311 1 -0.025396875 -0.00125 0.001771875 1.50466996007e-12
312 1 -0.025396875 -0.00125 0.002953125 6.95933567031e-13
313 1 -0.025396875 -0.00125 0.004134375 4.12418320885e-12
314 1 -0.025396875 -0.00125 0.005315625 1.00173919082e-15
315 1 -0.025396875 -0.00125 0.006496875 3.14696136324e-15
316 1 -0.025396875 -0.00125 0.007678125 1.25313057728e-19
317 1 -0.025396875 -0.00125 0.008859375 4.65627755743e-12
318 1 -0.025396875 -0.00125 0.010040625 6.14757598547e-15
319 1 -0.025396875 -0.00125 0.011221875 1.78379183308e-32
320 1 -0.025396875 -0.00125 0.012403125 2.71953725444e-49
321 1 -0.025396875 -0.00125 0.013584375 3.18551360249e-32
322 1 -0.025396875 -0.00125 0.014765625 5.0992843805e-54
323 1 -0.025396875 -0.00125 0.015946875 4.0238548166e-39
324 1 -0.025396875 -0.00125 0.017128125 8.75615173082e-44
325 1 -0.025396875 -0.00125 0.018309375 5.25040492496e-30
326 1 -0.025396875 -0.00125 0.019490625 8.16099404763e-26
327 1 -0.025396875 -0.00125 0.020671875 1.55909036678e-76
328 1 -0.025396875 -0.00125 0.021853125 2.62856029428e-184
329 1 -0.025396875 -0.00125 0.023034375 4.86688098249e-274
330 1 -0.025396875 -0.00125 0.024215625 0.0
331 1 -0.025396875 -0.00125 0.025396875 0.0
332 1 -0.025396875 -0.00125 0.026578125 0.0
333 1 -0.024215625 -0.00125 -0.027759375 0.0
334 1 -0.024215625 -0.00125 -0.026578125 0.0
335 1 -0.024215625 -0.00125 -0.025396875 0.0
336 1 -0.024215625 -0.00125 -0.024215625 0.0
337 1 -0.024215625 -0.00125 -0.023034375 0.0
338 1 -0.024215625 -0.00125 -0.021853125 5.68054840162e-239
339 1 -0.024215625 -0.00125 -0.020671875 8.72559700956e-108
340 1 -0.024215625 -0.00125 -0.019490625 1.00854899266e-21
341 1 -0.024215625 -0.00125 -0.018309375 2.55174213978e-40
342 1 -0.024215625 -0.00125 -0.017128125 3.15494759702e-78
343 1 -0.024215625 -0.00125 -0.015946875 2.28930215103e-80
344 1 -0.024215625 -0.00125 -0.014765625 1.05215703445e-71
345 1 -0.024215625 -0.00125 -0.013584375 2.40195849622e-32
346 1 -0.024215625 -0.00125 -0.012403125 7.97134144523e-24
347 1 -0.024215625 -0.00125 -0.011221875 1.19010241988e-30
348 1 -0.024215625 -0.00125 -0.010040625 4.58653608428e-18
349 1 -0.024215625 -0.00125 -0.008859375 2.06798805675e-14
350 1 -0.024215625 -0.00125 -0.007678125 5.7533986842e-13
351 1 -0.024215625 -0.00125 -0.006496875 7.54276241567e-08
352 1 -0.024215625 -0.00125 -0.005315625 2.47471789007e-06
353 1 -0.024215625 -0.00125 -0.004134375 3.98607662557e-05
354 1 -0.024215625 -0.00125 -0.002953125 0.000104783782062
355 1 -0.024215625 -0.00125 -0.001771875 2.52757008884e-05
356 1 -0.024215625 -0.00125 -0.000590625 0.000221775901656
357 1 -0.024215625 -0.00125 0.000590625 8.93290695737e-05
358 1 -0.024215625 -0.00125 0.001771875 1.93715736826e-06
359 1 -0.024215625 -0.00125 0.002953125 8.42957581419e-06
360 1 -0.024215625 -0.00125 0.004134375 2.39235769373e-06
361 1 -0.024215625 -0.00125 0.005315625 1.47860590637e-07
362 1 -0.024215625 -0.00125 0.006496875 6.35431180729e-10
363 1 -0.024215625 -0.00125 0.007678125 3.94639897175e-14
364 1 -0.024215625 -0.00125 0.008859375 8.50889511315e-16
365 1 -0.024215625 -0.00125 0.010040625 1.22853382776e-16
366 1 -0.024215625 -0.00125 0.011221875 1.88678827083e-28
367 1 -0.024215625 -0.00125 0.012403125 1.49656647286e-26
368 1 -0.024215625 -0.00125 0.013584375 1.04704530741e-17
369 1 -0.024215625 -0.00125 0.014765625 3.93013185652e-23
370 1 -0.024215625 -0.00125 0.015946875 7.55903992099e-31
371 1 -0.024215625 -0.00125 0.017128125 2.83064473381e-20
372 1 -0.024215625 -0.00125 0.018309375 4.54040368712e-21
373 1 -0.024215625 -0.00125 0.019490625 3.88915683047e-33
374 1 -0.024215625 -0.00125 0.020671875 3.31312946605e-108
375 1 -0.024215625 -0.00125 0.021853125 1.0795500781e-213
376 1 -0.024215625 -0.00125 0.023034375 4.14044290879e-276
377 1 -0.024215625 -0.00125 0.024215625 0.0
378 1 -0.024215625 -0.00125 0.025396875 0.0
379 1 -0.024215625 -0.00125 0.026578125 0.0
380 1 -0.024215625 -0.00125 0.027759375 1.49161047519e-144
381 1 -0.023034375 -0.00125 -0.027759375 0.0
382 1 -0.023034375 -0.00125 -0.026578125 0.0
383 1 -0.023034375 -0.00125 -0.025396875 0.0
384 1 -0.023034375 -0.00125 -0.024215625 2.59042511623e-152
385 1 -0.023034375 -0.00125 -0.023034375 7.5323216968e-85
386 1 -0.023034375 -0.00125 -0.021853125 3.19289686803e-50
387 1 -0.023034375 -0.00125 -0.020671875 7.00985344358e-27
388 1 -0.023034375 -0.00125 -0.019490625 4.12013860277e-15
389 1 -0.023034375 -0.00125 -0.018309375 4.75587884118e-21
390 1 -0.023034375 -0.00125 -0.017128125 1.05867174858e-29
391 1 -0.023034375 -0.00125 -0.015946875 7.26501046194e-29
392 1 -0.023034375 -0.00125 -0.014765625 1.30990958373e-27
393 1 -0.023034375 -0.00125 -0.013584375 2.64125402831e-21
394 1 -0.023034375 -0.00125 -0.012403125 1.68083677825e-20
395 1 -0.023034375 -0.00125 -0.011221875 3.17583694099e-22
396 1 -0.023034375 -0.00125 -0.010040625 2.31510596038e-11
397 1 -0.023034375 -0.00125 -0.008859375 6.32447038149e-09
398 1 -0.023034375 -0.00125 -0.007678125 2.19169277371e-07
399 1 -0.023034375 -0.00125 -0.006496875 0.000313199525996
400 1 -0.023034375 -0.00125 -0.005315625 0.00142140895896
401 1 -0.023034375 -0.00125 -0.004134375 0.013510761384
402 1 -0.023034375 -0.00125 -0.002953125 0.00709987724786
403 1 -0.023034375 -0.00125 -0.001771875 0.00099102503136
404 1 -0.023034375 -0.00125 -0.000590625 0.00119271185244
405 1 -0.023034375 -0.00125 0.000590625 0.000799607032688
406 1 -0.023034375 -0.00125 0.001771875 8.27600166754e-05
407 1 -0.023034375 -0.00125 0.002953125 0.000579837312537
408 1 -0.023034375 -0.00125 0.004134375 0.00145487733021
409 1 -0.023034375 -0.00125 0.005315625 0.000555450572193
410 1 -0.023034375 -0.00125 0.006496875 0.000240728086024
411 1 -0.023034375 -0.00125 0.007678125 3.72789225746e-06
412 1 -0.023034375 -0.00125 0.008859375 2.19170027489e-11
413 1 -0.023034375 -0.00125 0.010040625 6.55251822097e-13
414 1 -0.023034375 -0.00125 0.011221875 5.13191778779e-18
415 1 -0.023034375 -0.00125 0.012403125 3.98858778943e-18
416 1 -0.023034375 -0.00125 0.013584375 8.50796735963e-18
417 1 -0.023034375 -0.00125 0.014765625 2.66172359833e-20
418 1 -0.023034375 -0.00125 0.015946875 5.14298827711e-23
419 1 -0.023034375 -0.00125 0.017128125 9.85701073167e-15
420 1 -0.023034375 -0.00125 0.018309375 1.27145373797e-18
421 1 -0.023034375 -0.00125 0.019490625 1.90540623139e-21
422 1 -0.023034375 -0.00125 0.020671875 2.21151252802e-70
423 1 -0.023034375 -0.00125 0.021853125 1.43684216071e-137
424 1 -0.023034375 -0.00125 0.023034375 1.95686217845e-137
425 1 -0.023034375 -0.00125 0.024215625 2.10620151016e-240
426 1 -0.023034375 -0.00125 0.025396875 0.0
427 1 -0.023034375 -0.00125 0.026578125 0.0
428 1 -0.023034375 -0.00125 0.027759375 1.49849383243e-86
429 1 -0.021853125 -0.00125 -0.028940625 6.55499443607e-225
430 1 -0.021853125 -0.00125 -0.027759375 0.0
431 1 -0.021853125 -0.00125 -0.026578125 0.0
432 1 -0.021853125 -0.00125 -0.025396875 8.79614263977e-237
433 1 -0.021853125 -0.00125 -0.024215625 7.58237573825e-48
434 1 -0.021853125 -0.00125 -0.023034375 6.81930486999e-40
435 1 -0.021853125 -0.00125 -0.021853125 2.29243333883e-19
436 1 -0.021853125 -0.00125 -0.020671875 9.6920375402e-13
437 1 -0.021853125 -0.00125 -0.019490625 1.67344159052e-10
438 1 -0.021853125 -0.00125 -0.018309375 2.87844161328e-11
439 1 -0.021853125 -0.00125 -0.017128125 3.9189610891e-10
440 1 -0.021853125 -0.00125 -0.015946875 1.0037258963e-12
441 1 -0.021853125 -0.00125 -0.014765625 5.44306768912e-17
442 1 -0.021853125 -0.00125 -0.013584375 6.44680210004e-17
443 1 -0.021853125 -0.00125 -0.012403125 5.0118022093e-16
444 1 -0.021853125 -0.00125 -0.011221875 1.67118186304e-09
445 1 -0.021853125 -0.00125 -0.010040625 2.46009770521e-06
446 1 -0.021853125 -0.00125 -0.008859375 4.20253009757e-05
447 1 -0.021853125 -0.00125 -0.007678125 1.0654987384e-05
448 1 -0.021853125 -0.00125 -0.006496875 0.000928939053939
449 1 -0.021853125 -0.00125 -0.005315625 0.00582358537873
450 1 -0.021853125 -0.00125 -0.004134375 0.0171743738709
451 1 -0.021853125 -0.00125 -0.002953125 0.0172414361979
452 1 -0.021853125 -0.00125 -0.001771875 0.00459847941774
453 1 -0.021853125 -0.00125 -0.000590625 0.00208346450925
454 1 -0.021853125 -0.00125 0.000590625 0.00564328753132
455 1 -0.021853125 -0.00125 0.001771875 0.00310745676078
456 1 -0.021853125 -0.00125 0.002953125 0.0030561245005
457 1 -0.021853125 -0.00125 0.004134375 0.00229536231735
458 1 -0.021853125 -0.00125 0.005315625 0.00421585739462
459 1 -0.021853125 -0.00125 0.006496875 0.00632717328264
460 1 -0.021853125 -0.00125 0.007678125 5.85237986833e-05
461 1 -0.021853125 -0.00125 0.008859375 9.5500929089e-08
462 1 -0.021853125 -0.00125 0.010040625 4.06956977876e-08
463 1 -0.021853125 -0.00125 0.011221875 3.35313096395e-08
464 1 -0.021853125 -0.00125 0.012403125 3.98080238307e-13
465 1 -0.021853125 -0.00125 0.013584375 5.45908270762e-17
466 1 -0.021853125 -0.00125 0.014765625 5.4647457105e-17
467 1 -0.021853125 -0.00125 0.015946875 2.35651421784e-19
468 1 -0.021853125 -0.00125 0.017128125 1.02169834597e-16
469 1 -0.021853125 -0.00125 0.018309375 6.22843757975e-14
470 1 -0.021853125 -0.00125 0.019490625 6.77500240327e-18
471 1 -0.021853125 -0.00125 0.020671875 1.78950115325e-31
472 1 -0.021853125 -0.00125 0.021853125 3.86420644401e-66
473 1 -0.021853125 -0.00125 0.023034375 3.59951432571e-83
474 1 -0.021853125 -0.00125 0.024215625 2.46532669054e-158
475 1 -0.021853125 -0.00125 0.025396875 1.76640400497e-216
476 1 -0.021853125 -0.00125 0.026578125 3.63380844779e-190
477 1 -0.021853125 -0.00125 0.027759375 9.97894281299e-95
478 1 -0.021853125 -0.00125 0.028940625 8.24181338391e-91
479 1 -0.020671875 -0.00125 -0.030121875 7.10362785799e-221
480 1 -0.020671875 -0.00125 -0.028940625 2.80720271287e-140
481 1 -0.020671875 -0.00125 -0.027759375 6.07259640657e-171
482 1 -0.020671875 -0.00125 -0.026578125 1.29520618714e-137
483 1 -0.020671875 -0.00125 -0.025396875 2.22684839353e-73
484 1 -0.020671875 -0.00125 -0.024215625 3.56077363371e-23
485 1 -0.020671875 -0.00125 -0.023034375 2.68997192165e-18
486 1 -0.020671875 -0.00125 -0.021853125 2.82951028801e-13
487 1 -0.020671875 -0.00125 -0.020671875 6.95465542138e-10
488 1 -0.020671875 -0.00125 -0.019490625 3.84933933162e-06
489 1 -0.020671875 -0.00125 -0.018309375 1.44418527021e-06
490 1 -0.020671875 -0.00125 -0.017128125 6.51136760399e-07
491 1 -0.020671875 -0.00125 -0.015946875 1.99142259149e-11
492 1 -0.020671875 -0.00125 -0.014765625 1.26003325752e-11
493 1 -0.020671875 -0.00125 -0.013584375 2.18947618433e-13
494 1 -0.020671875 -0.00125 -0.012403125 1.23220547906e-08
495 1 -0.020671875 -0.00125 -0.011221875 1.98084971973e-06
496 1 -0.020671875 -0.00125 -0.010040625 8.05169618807e-05
497 1 -0.020671875 -0.00125 -0.008859375 5.92368594971e-06
498 1 -0.020671875 -0.00125 -0.007678125 2.11006766757e-06
499 1 -0.020671875 -0.00125 -0.006496875 0.000165828077451
500 1 -0.020671875 -0.00125 -0.005315625 0.0006203535812
501 1 -0.020671875 -0.00125 -0.004134375 0.00204031027483
502 1 -0.020671875 -0.00125 -0.002953125 0.000846536645895
503 1 -0.020671875 -0.00125 -0.001771875 0.000897894423855
504 1 -0.020671875 -0.00125 -0.000590625 0.000731050273268
505 1 -0.020671875 -0.00125 0.000590625 0.000687429373771
506 1 -0.020671875 -0.00125 0.001771875 0.000713851041444
507 1 -0.020671875 -0.00125 0.002953125 9.6282556375e-05
508 1 -0.020671875 -0.00125 0.004134375 0.000491542680414
509 1 -0.020671875 -0.00125 0.005315625 0.00111964269352
510 1 -0.020671875 -0.00125 0.006496875 0.00162489501459
511 1 -0.020671875 -0.00125 0.007678125 2.57745737911e-05
512 1 -0.020671875 -0.00125 0.008859375 1.14509231144e-06
513 1 -0.020671875 -0.00125 0.010040625 8.34998313467e-07
514 1 -0.020671875 -0.00125 0.011221875 4.78109932446e-08
515 1 -0.020671875 -0.00125 0.012403125 6.00592209955e-10
516 1 -0.020671875 -0.00125 0.013584375 9.88880078803e-10
517 1 -0.020671875 -0.00125 0.014765625 2.13655160042e-09
518 1 -0.020671875 -0.00125 0.015946875 2.77260875086e-10
519 1 -0.020671875 -0.00125 0.017128125 3.7925056962e-09
520 1 -0.020671875 -0.00125 0.018309375 1.28943874612e-08
521 1 -0.020671875 -0.00125 0.019490625 6.22267635073e-12
522 1 -0.020671875 -0.00125 0.020671875 4.83055344649e-20
523 1 -0.020671875 -0.00125 0.021853125 1.19318763649e-20
524 1 -0.020671875 -0.00125 0.023034375 5.67751961854e-30
525 1 -0.020671875 -0.00125 0.024215625 5.72094915609e-89
526 1 -0.020671875 -0.00125 0.025396875 5.88276410766e-84
527 1 -0.020671875 -0.00125 0.026578125 1.32530159e-76
528 1 -0.020671875 -0.00125 0.027759375 9.90627372274e-37
529 1 -0.020671875 -0.00125 0.028940625 3.59193254874e-123
530 1 -0.020671875 -0.00125 0.030121875 7.15751347885e-206