ITEM: TIMESTEP
0
ITEM: NUMBER OF ATOMS
3080
ITEM: BOX BOUNDS ss ss ss
-3.7007399999999996e-02 3.7007399999999996e-02
-2.0002499999999999e-03 2.5000000000000004e-07
-3.7007399999999996e-02 3.7007399999999996e-02
ITEM: ATOMS id type x y z c_1
0 1 -0.037209375 -0.00125 -0.000590625 2.52637260093e-41
1 1 -0.036028125 -0.00125 -0.007678125 1.14546619745e-249
2 1 -0.036028125 -0.00125 -0.006496875 0.0
3 1 -0.036028125 -0.00125 -0.005315625 0.0
4 1 -0.036028125 -0.00125 -0.004134375 0.0
5 1 -0.036028125 -0.00125 -0.002953125 2.00830089751e-78
6 1 -0.036028125 -0.00125 -0.001771875 2.11149492888e-93
7 1 -0.036028125 -0.00125 -0.000590625 0.0
8 1 -0.036028125 -0.00125 0.000590625 0.0
9 1 -0.036028125 -0.00125 0.001771875 0.0
10 1 -0.036028125 -0.00125 0.002953125 0.0
11 1 -0.036028125 -0.00125 0.004134375 0.0
12 1 -0.036028125 -0.00125 0.005315625 0.0
13 1 -0.036028125 -0.00125 0.006496875 8.02075827864e-105
14 1 -0.036028125 -0.00125 0.007678125 2.69218547598e-06
15 1 -0.034846875 -0.00125 -0.011221875 0.0
16 1 -0.034846875 -0.00125 -0.010040625 0.0
17 1 -0.034846875 -0.00125 -0.008859375 2.14444404624e-155
18 1 -0.034846875 -0.00125 -0.007678125 2.51243064579e-60
19 1 -0.034846875 -0.00125 -0.006496875 0.0
20 1 -0.034846875 -0.00125 -0.005315625 0.0
21 1 -0.034846875 -0.00125 -0.004134375 0.0
22 1 -0.034846875 -0.00125 -0.002953125 0.0
23 1 -0.034846875 -0.00125 -0.001771875 7.71534978663e-258
24 1 -0.034846875 -0.00125 -0.000590625 1.46952651605e-230
25 1 -0.034846875 -0.00125 0.000590625 0.0
26 1 -0.034846875 -0.00125 0.001771875 0.0
27 1 -0.034846875 -0.00125 0.002953125 0.0
28 1 -0.034846875 -0.00125 0.004134375 0.0
29 1 -0.034846875 -0.00125 0.005315625 0.0
30 1 -0.034846875 -0.00125 0.006496875 1.63541696755e-98
31 1 -0.034846875 -0.00125 0.007678125 3.67326218764e-08
32 1 -0.034846875 -0.00125 0.008859375 0.000205194300404
33 1 -0.034846875 -0.00125 0.010040625 1.55494743817e-07
34 1 -0.034846875 -0.00125 0.011221875 0.00269718535741
35 1 -0.033665625 -0.00125 -0.013584375 0.0
36 1 -0.033665625 -0.00125 -0.012403125 8.87158028296e-102
37 1 -0.033665625 -0.00125 -0.011221875 7.27261495387e-122
38 1 -0.033665625 -0.00125 -0.010040625 0.0
39 1 -0.033665625 -0.00125 -0.008859375 1.14601620515e-40
40 1 -0.033665625 -0.00125 -0.007678125 1.3800334882e-28
41 1 -0.033665625 -0.00125 -0.006496875 0.0
42 1 -0.033665625 -0.00125 -0.005315625 0.0
43 1 -0.033665625 -0.00125 -0.004134375 0.0
44 1 -0.033665625 -0.00125 -0.002953125 0.0
45 1 -0.033665625 -0.00125 -0.001771875 0.0
46 1 -0.033665625 -0.00125 -0.000590625 5.19599013333e-159
47 1 -0.033665625 -0.00125 0.000590625 0.0
48 1 -0.033665625 -0.00125 0.001771875 0.0
49 1 -0.033665625 -0.00125 0.002953125 0.0
50 1 -0.033665625 -0.00125 0.004134375 5.93269271935e-154
51 1 -0.033665625 -0.00125 0.005315625 1.19766480711e-144
52 1 -0.033665625 -0.00125 0.006496875 6.0131999893e-43
53 1 -0.033665625 -0.00125 0.007678125 4.12449318622e-11
54 1 -0.033665625 -0.00125 0.008859375 7.92400900658e-08
55 1 -0.033665625 -0.00125 0.010040625 1.83162169506e-07
56 1 -0.033665625 -0.00125 0.011221875 0.00946252475522
57 1 -0.033665625 -0.00125 0.012403125 0.0184792546887
58 1 -0.033665625 -0.00125 0.013584375 7.7996135005e-27
59 1 -0.032484375 -0.00125 -0.018309375 0.0
60 1 -0.032484375 -0.00125 -0.017128125 0.0
61 1 -0.032484375 -0.00125 -0.015946875 0.0
62 1 -0.032484375 -0.00125 -0.014765625 0.0
63 1 -0.032484375 -0.00125 -0.013584375 0.0
64 1 -0.032484375 -0.00125 -0.012403125 0.0
65 1 -0.032484375 -0.00125 -0.011221875 3.22620330458e-67
66 1 -0.032484375 -0.00125 -0.010040625 5.98768926437e-25
67 1 -0.032484375 -0.00125 -0.008859375 1.37595045117e-26
68 1 -0.032484375 -0.00125 -0.007678125 5.34630972838e-55
69 1 -0.032484375 -0.00125 -0.006496875 0.0
70 1 -0.032484375 -0.00125 -0.005315625 0.0
71 1 -0.032484375 -0.00125 -0.004134375 0.0
72 1 -0.032484375 -0.00125 -0.002953125 0.0
73 1 -0.032484375 -0.00125 -0.001771875 1.04714795382e-283
74 1 -0.032484375 -0.00125 -0.000590625 0.0
75 1 -0.032484375 -0.00125 0.000590625 0.0
76 1 -0.032484375 -0.00125 0.001771875 0.0
77 1 -0.032484375 -0.00125 0.002953125 0.0
78 1 -0.032484375 -0.00125 0.004134375 3.9280870383e-112
79 1 -0.032484375 -0.00125 0.005315625 6.55181189571e-308
80 1 -0.032484375 -0.00125 0.006496875 8.09905975234e-128
81 1 -0.032484375 -0.00125 0.007678125 3.72683359984e-31
82 1 -0.032484375 -0.00125 0.008859375 8.88710115466e-06
83 1 -0.032484375 -0.00125 0.010040625 3.23882441526e-06
84 1 -0.032484375 -0.00125 0.011221875 0.000612165823431
85 1 -0.032484375 -0.00125 0.012403125 6.18525099375e-05
86 1 -0.032484375 -0.00125 0.013584375 1.66376455441e-25
87 1 -0.032484375 -0.00125 0.014765625 5.78688727234e-11
88 1 -0.032484375 -0.00125 0.015946875 2.60146453519e-06
89 1 -0.032484375 -0.00125 0.017128125 5.94454471558e-10
90 1 -0.032484375 -0.00125 0.018309375 2.0424986824e-66
91 1 -0.031303125 -0.00125 -0.019490625 0.0
92 1 -0.031303125 -0.00125 -0.018309375 0.0
93 1 -0.031303125 -0.00125 -0.017128125 0.0
94 1 -0.031303125 -0.00125 -0.015946875 0.0
95 1 -0.031303125 -0.00125 -0.014765625 0.0
96 1 -0.031303125 -0.00125 -0.013584375 0.0
97 1 -0.031303125 -0.00125 -0.012403125 2.0878170909e-221
98 1 -0.031303125 -0.00125 -0.011221875 5.59474459803e-39
99 1 -0.031303125 -0.00125 -0.010040625 7.09590982317e-24
100 1 -0.031303125 -0.00125 -0.008859375 8.54513063814e-130
101 1 -0.031303125 -0.00125 -0.007678125 0.0
102 1 -0.031303125 -0.00125 -0.006496875 0.0
103 1 -0.031303125 -0.00125 -0.005315625 0.0
104 1 -0.031303125 -0.00125 -0.004134375 1.97688199332e-253
105 1 -0.031303125 -0.00125 -0.002953125 3.24067484709e-127
106 1 -0.031303125 -0.00125 -0.001771875 1.55133943037e-200
107 1 -0.031303125 -0.00125 -0.000590625 0.0
108 1 -0.031303125 -0.00125 0.000590625 4.72718488587e-296
109 1 -0.031303125 -0.00125 0.001771875 9.14898006125e-163
110 1 -0.031303125 -0.00125 0.002953125 3.25075700995e-300
111 1 -0.031303125 -0.00125 0.004134375 4.27225819827e-84
112 1 -0.031303125 -0.00125 0.005315625 1.60465368512e-259
113 1 -0.031303125 -0.00125 0.006496875 9.13167189403e-81
114 1 -0.031303125 -0.00125 0.007678125 2.51740620858e-49
115 1 -0.031303125 -0.00125 0.008859375 8.46223693384e-09
116 1 -0.031303125 -0.00125 0.010040625 6.28146448564e-07
117 1 -0.031303125 -0.00125 0.011221875 7.14953309883e-07
118 1 -0.031303125 -0.00125 0.012403125 8.18524761606e-19
119 1 -0.031303125 -0.00125 0.013584375 2.80434656465e-23
120 1 -0.031303125 -0.00125 0.014765625 7.32550982626e-14
121 1 -0.031303125 -0.00125 0.015946875 1.34608252436e-31
122 1 -0.031303125 -0.00125 0.017128125 1.11759647712e-11
123 1 -0.031303125 -0.00125 0.018309375 1.38548268675e-13
124 1 -0.031303125 -0.00125 0.019490625 4.73008423532e-172
125 1 -0.030121875 -0.00125 -0.020671875 2.36229547612e-120
126 1 -0.030121875 -0.00125 -0.019490625 0.0
127 1 -0.030121875 -0.00125 -0.018309375 0.0
128 1 -0.030121875 -0.00125 -0.017128125 0.0
129 1 -0.030121875 -0.00125 -0.015946875 0.0
130 1 -0.030121875 -0.00125 -0.014765625 0.0
131 1 -0.030121875 -0.00125 -0.013584375 2.92486708175e-261
132 1 -0.030121875 -0.00125 -0.012403125 5.10920760222e-61
133 1 -0.030121875 -0.00125 -0.011221875 2.19743036484e-53
134 1 -0.030121875 -0.00125 -0.010040625 1.38083207394e-28
135 1 -0.030121875 -0.00125 -0.008859375 7.74942201666e-93
136 1 -0.030121875 -0.00125 -0.007678125 2.17557130415e-160
137 1 -0.030121875 -0.00125 -0.006496875 2.81980202373e-104
138 1 -0.030121875 -0.00125 -0.005315625 8.07119301254e-107
139 1 -0.030121875 -0.00125 -0.004134375 2.04709439171e-76
140 1 -0.030121875 -0.00125 -0.002953125 1.80051563222e-83
141 1 -0.030121875 -0.00125 -0.001771875 3.20503695169e-102
142 1 -0.030121875 -0.00125 -0.000590625 2.69923804762e-156
143 1 -0.030121875 -0.00125 0.000590625 1.2599487086e-73
144 1 -0.030121875 -0.00125 0.001771875 9.27975509982e-46
145 1 -0.030121875 -0.00125 0.002953125 1.86340457651e-74
146 1 -0.030121875 -0.00125 0.004134375 3.80956333403e-73
147 1 -0.030121875 -0.00125 0.005315625 1.71881988667e-211
148 1 -0.030121875 -0.00125 0.006496875 2.02369789869e-65
149 1 -0.030121875 -0.00125 0.007678125 4.36500899889e-32
150 1 -0.030121875 -0.00125 0.008859375 2.30876777701e-10
151 1 -0.030121875 -0.00125 0.010040625 3.03229171094e-35
152 1 -0.030121875 -0.00125 0.011221875 3.01916726276e-48
153 1 -0.030121875 -0.00125 0.012403125 1.75508946412e-202
154 1 -0.030121875 -0.00125 0.013584375 4.33594992397e-264
155 1 -0.030121875 -0.00125 0.014765625 8.82937856028e-180
156 1 -0.030121875 -0.00125 0.015946875 6.69867978979e-167
157 1 -0.030121875 -0.00125 0.017128125 9.19420760146e-50
158 1 -0.030121875 -0.00125 0.018309375 4.31914346388e-20
159 1 -0.030121875 -0.00125 0.019490625 9.85879731266e-68
160 1 -0.030121875 -0.00125 0.020671875 1.02534772754e-56
161 1 -0.028940625 -0.00125 -0.021853125 6.83408294745e-258
162 1 -0.028940625 -0.00125 -0.020671875 0.0
163 1 -0.028940625 -0.00125 -0.019490625 0.0
164 1 -0.028940625 -0.00125 -0.018309375 0.0
165 1 -0.028940625 -0.00125 -0.017128125 0.0
166 1 -0.028940625 -0.00125 -0.015946875 1.46388471837e-158
167 1 -0.028940625 -0.00125 -0.014765625 2.73807603106e-93
168 1 -0.028940625 -0.00125 -0.013584375 1.70476420766e-51
169 1 -0.028940625 -0.00125 -0.012403125 5.41227303051e-34
170 1 -0.028940625 -0.00125 -0.011221875 3.8420927021e-78
171 1 -0.028940625 -0.00125 -0.010040625 4.13292696361e-54
172 1 -0.028940625 -0.00125 -0.008859375 2.02380766839e-40
173 1 -0.028940625 -0.00125 -0.007678125 6.93413246843e-54
174 1 -0.028940625 -0.00125 -0.006496875 4.69033640653e-113
175 1 -0.028940625 -0.00125 -0.005315625 5.07986099562e-211
176 1 -0.028940625 -0.00125 -0.004134375 4.93508474557e-42
177 1 -0.028940625 -0.00125 -0.002953125 1.81511150958e-28
178 1 -0.028940625 -0.00125 -0.001771875 3.65542268551e-22
179 1 -0.028940625 -0.00125 -0.000590625 1.42139695763e-16
180 1 -0.028940625 -0.00125 0.000590625 3.5490175085e-06
181 1 -0.028940625 -0.00125 0.001771875 2.15475854688e-06
182 1 -0.028940625 -0.00125 0.002953125 7.71936781732e-07
183 1 -0.028940625 -0.00125 0.004134375 3.13238806436e-13
184 1 -0.028940625 -0.00125 0.005315625 2.39663091396e-95
185 1 -0.028940625 -0.00125 0.006496875 5.30840628521e-122
186 1 -0.028940625 -0.00125 0.007678125 2.07190455592e-30
187 1 -0.028940625 -0.00125 0.008859375 5.22525338378e-10
188 1 -0.028940625 -0.00125 0.010040625 0.0
189 1 -0.028940625 -0.00125 0.011221875 0.0
190 1 -0.028940625 -0.00125 0.012403125 0.0
191 1 -0.028940625 -0.00125 0.013584375 0.0
192 1 -0.028940625 -0.00125 0.014765625 0.0
193 1 -0.028940625 -0.00125 0.015946875 0.0
194 1 -0.028940625 -0.00125 0.017128125 1.47419106525e-219
195 1 -0.028940625 -0.00125 0.018309375 7.24553843613e-51
196 1 -0.028940625 -0.00125 0.019490625 3.88714240299e-13
197 1 -0.028940625 -0.00125 0.020671875 2.66647481152e-06
198 1 -0.028940625 -0.00125 0.021853125 0.00175297121934
199 1 -0.027759375 -0.00125 -0.024215625 0.0
200 1 -0.027759375 -0.00125 -0.023034375 0.0
201 1 -0.027759375 -0.00125 -0.021853125 0.0
202 1 -0.027759375 -0.00125 -0.020671875 0.0
203 1 -0.027759375 -0.00125 -0.019490625 0.0
204 1 -0.027759375 -0.00125 -0.018309375 0.0
205 1 -0.027759375 -0.00125 -0.017128125 2.24847610499e-136
206 1 -0.027759375 -0.00125 -0.015946875 7.27810724773e-48
207 1 -0.027759375 -0.00125 -0.014765625 1.63955487566e-35
208 1 -0.027759375 -0.00125 -0.013584375 4.12735842582e-38
209 1 -0.027759375 -0.00125 -0.012403125 4.23900816406e-44
210 1 -0.027759375 -0.00125 -0.011221875 8.50510454411e-61
211 1 -0.027759375 -0.00125 -0.010040625 1.08265133863e-61
212 1 -0.027759375 -0.00125 -0.008859375 3.91521029054e-85
213 1 -0.027759375 -0.00125 -0.007678125 2.85114952453e-177
214 1 -0.027759375 -0.00125 -0.006496875 0.0
215 1 -0.027759375 -0.00125 -0.005315625 5.68405741511e-160
216 1 -0.027759375 -0.00125 -0.004134375 2.52831760255e-209
217 1 -0.027759375 -0.00125 -0.002953125 1.30279517617e-250
218 1 -0.027759375 -0.00125 -0.001771875 2.87134054536e-105
219 1 -0.027759375 -0.00125 -0.000590625 2.02503473361e-16
220 1 -0.027759375 -0.00125 0.000590625 2.87419235807e-08
221 1 -0.027759375 -0.00125 0.001771875 2.03709034637e-15
222 1 -0.027759375 -0.00125 0.002953125 1.00080733229e-14
223 1 -0.027759375 -0.00125 0.004134375 5.9579878396e-20
224 1 -0.027759375 -0.00125 0.005315625 8.49759098926e-95
225 1 -0.027759375 -0.00125 0.006496875 1.07353164079e-157
226 1 -0.027759375 -0.00125 0.007678125 2.65186399357e-70
227 1 -0.027759375 -0.00125 0.008859375 1.45286813437e-10
228 1 -0.027759375 -0.00125 0.010040625 1.33843369186e-108
229 1 -0.027759375 -0.00125 0.011221875 8.44660158659e-130
230 1 -0.027759375 -0.00125 0.012403125 3.13947916857e-303
231 1 -0.027759375 -0.00125 0.013584375 4.67174778464e-159
232 1 -0.027759375 -0.00125 0.014765625 3.152300055e-306
233 1 -0.027759375 -0.00125 0.015946875 2.81554253842e-221
234 1 -0.027759375 -0.00125 0.017128125 8.46195332477e-210
235 1 -0.027759375 -0.00125 0.018309375 6.14437742261e-102
236 1 -0.027759375 -0.00125 0.019490625 8.36322349937e-14
237 1 -0.027759375 -0.00125 0.020671875 0.0228790742651
238 1 -0.027759375 -0.00125 0.021853125 0.0582637790798
239 1 -0.027759375 -0.00125 0.023034375 0.0004163323636
240 1 -0.027759375 -0.00125 0.024215625 2.21908636594e-45
241 1 -0.026578125 -0.00125 -0.026578125 2.39302434629e-271
242 1 -0.026578125 -0.00125 -0.025396875 0.0
243 1 -0.026578125 -0.00125 -0.024215625 0.0
244 1 -0.026578125 -0.00125 -0.023034375 0.0
245 1 -0.026578125 -0.00125 -0.021853125 0.0
246 1 -0.026578125 -0.00125 -0.020671875 0.0
247 1 -0.026578125 -0.00125 -0.019490625 0.0
248 1 -0.026578125 -0.00125 -0.018309375 1.13106631555e-270
249 1 -0.026578125 -0.00125 -0.017128125 1.75749782481e-81
250 1 -0.026578125 -0.00125 -0.015946875 1.12131709519e-31
251 1 -0.026578125 -0.00125 -0.014765625 2.72475315773e-11
252 1 -0.026578125 -0.00125 -0.013584375 1.0959833149e-13
253 1 -0.026578125 -0.00125 -0.012403125 2.39855955987e-14
254 1 -0.026578125 -0.00125 -0.011221875 5.73813342095e-20
255 1 -0.026578125 -0.00125 -0.010040625 8.93721658227e-35
256 1 -0.026578125 -0.00125 -0.008859375 3.31720209357e-116
257 1 -0.026578125 -0.00125 -0.007678125 0.0
258 1 -0.026578125 -0.00125 -0.006496875 0.0
259 1 -0.026578125 -0.00125 -0.005315625 3.28909445419e-122
260 1 -0.026578125 -0.00125 -0.004134375 0.0
261 1 -0.026578125 -0.00125 -0.002953125 0.0
262 1 -0.026578125 -0.00125 -0.001771875 2.08307092827e-236
263 1 -0.026578125 -0.00125 -0.000590625 2.59525061444e-24
264 1 -0.026578125 -0.00125 0.000590625 3.10427251877e-28
265 1 -0.026578125 -0.00125 0.001771875 1.4237320282e-52
266 1 -0.026578125 -0.00125 0.002953125 6.56120012419e-43
267 1 -0.026578125 -0.00125 0.004134375 1.20821107263e-32
268 1 -0.026578125 -0.00125 0.005315625 5.3805227748e-43
269 1 -0.026578125 -0.00125 0.006496875 2.50727255582e-30
270 1 -0.026578125 -0.00125 0.007678125 2.35487150572e-41
271 1 -0.026578125 -0.00125 0.008859375 2.82567650339e-14
272 1 -0.026578125 -0.00125 0.010040625 7.62284339174e-08
273 1 -0.026578125 -0.00125 0.011221875 2.49495851784e-07
274 1 -0.026578125 -0.00125 0.012403125 5.30528356291e-15
275 1 -0.026578125 -0.00125 0.013584375 4.23815784865e-13
276 1 -0.026578125 -0.00125 0.014765625 1.20030542897e-73
277 1 -0.026578125 -0.00125 0.015946875 8.9753432506e-150
278 1 -0.026578125 -0.00125 0.017128125 2.81040086884e-295
279 1 -0.026578125 -0.00125 0.018309375 2.74010433528e-207
280 1 -0.026578125 -0.00125 0.019490625 9.46985334796e-17
281 1 -0.026578125 -0.00125 0.020671875 0.00138794402886
282 1 -0.026578125 -0.00125 0.021853125 0.000887556602894
283 1 -0.026578125 -0.00125 0.023034375 6.38655812961e-15
284 1 -0.026578125 -0.00125 0.024215625 4.08696463451e-25
285 1 -0.026578125 -0.00125 0.025396875 5.972158606e-50
286 1 -0.026578125 -0.00125 0.026578125 2.56918978444e-260
287 1 -0.025396875 -0.00125 -0.026578125 0.0
288 1 -0.025396875 -0.00125 -0.025396875 0.0
289 1 -0.025396875 -0.00125 -0.024215625 0.0
290 1 -0.025396875 -0.00125 -0.023034375 0.0
291 1 -0.025396875 -0.00125 -0.021853125 0.0
292 1 -0.025396875 -0.00125 -0.020671875 1.07224561649e-127
293 1 -0.025396875 -0.00125 -0.019490625 2.37105522984e-175
294 1 -0.025396875 -0.00125 -0.018309375 2.12684899656e-120
295 1 -0.025396875 -0.00125 -0.017128125 2.10263974072e-37
296 1 -0.025396875 -0.00125 -0.015946875 3.22772727735e-11
297 1 -0.025396875 -0.00125 -0.014765625 0.000106582712063
298 1 -0.025396875 -0.00125 -0.013584375 7.00680951078e-05
299 1 -0.025396875 -0.00125 -0.012403125 4.9777265203e-11
300 1 -0.025396875 -0.00125 -0.011221875 6.33720633504e-35
301 1 -0.025396875 -0.00125 -0.010040625 1.47899892476e-90
302 1 -0.025396875 -0.00125 -0.008859375 1.90143078204e-278
303 1 -0.025396875 -0.00125 -0.007678125 0.0
304 1 -0.025396875 -0.00125 -0.006496875 0.0
305 1 -0.025396875 -0.00125 -0.005315625 1.63535427785e-49
306 1 -0.025396875 -0.00125 -0.004134375 1.01612917926e-156
307 1 -0.025396875 -0.00125 -0.002953125 7.15570282744e-107
308 1 -0.025396875 -0.00125 -0.001771875 8.52367779992e-89
309 1 -0.025396875 -0.00125 -0.000590625 1.76927878577e-17
310 1 -0.025396875 -0.00125 0.000590625 1.04189021426e-24
311 1 -0.025396875 -0.00125 0.001771875 6.13519414674e-25
312 1 -0.025396875 -0.00125 0.002953125 7.00860305175e-12
313 1 -0.025396875 -0.00125 0.004134375 7.07872099646e-09
314 1 -0.025396875 -0.00125 0.005315625 2.63908097988e-11
315 1 -0.025396875 -0.00125 0.006496875 2.18907698366e-13
316 1 -0.025396875 -0.00125 0.007678125 7.96786566528e-28
317 1 -0.025396875 -0.00125 0.008859375 9.51424512249e-20
318 1 -0.025396875 -0.00125 0.010040625 2.38592946673e-15
319 1 -0.025396875 -0.00125 0.011221875 3.43497070734e-11
320 1 -0.025396875 -0.00125 0.012403125 4.76767166459e-19
321 1 -0.025396875 -0.00125 0.013584375 9.42045777411e-17
322 1 -0.025396875 -0.00125 0.014765625 1.3949157323e-208
323 1 -0.025396875 -0.00125 0.015946875 0.0
324 1 -0.025396875 -0.00125 0.017128125 0.0
325 1 -0.025396875 -0.00125 0.018309375 1.08787807339e-118
326 1 -0.025396875 -0.00125 0.019490625 2.20513277087e-38
327 1 -0.025396875 -0.00125 0.020671875 1.87649314251e-12
328 1 -0.025396875 -0.00125 0.021853125 6.84333739772e-09
329 1 -0.025396875 -0.00125 0.023034375 4.30184007282e-14
330 1 -0.025396875 -0.00125 0.024215625 3.63401302981e-52
331 1 -0.025396875 -0.00125 0.025396875 3.2251360288e-214
332 1 -0.025396875 -0.00125 0.026578125 7.97480004981e-293
333 1 -0.024215625 -0.00125 -0.027759375 2.43389907958e-69
334 1 -0.024215625 -0.00125 -0.026578125 0.0
335 1 -0.024215625 -0.00125 -0.025396875 0.0
336 1 -0.024215625 -0.00125 -0.024215625 0.0
337 1 -0.024215625 -0.00125 -0.023034375 0.0
338 1 -0.024215625 -0.00125 -0.021853125 0.0
339 1 -0.024215625 -0.00125 -0.020671875 8.989750813e-176
340 1 -0.024215625 -0.00125 -0.019490625 5.68204760011e-76
341 1 -0.024215625 -0.00125 -0.018309375 4.65233630495e-47
342 1 -0.024215625 -0.00125 -0.017128125 2.94569067669e-21
343 1 -0.024215625 -0.00125 -0.015946875 2.86021923786e-07
344 1 -0.024215625 -0.00125 -0.014765625 0.0022597565588
345 1 -0.024215625 -0.00125 -0.013584375 0.00118206916081
346 1 -0.024215625 -0.00125 -0.012403125 2.02701563164e-10
347 1 -0.024215625 -0.00125 -0.011221875 3.4513292264e-45
348 1 -0.024215625 -0.00125 -0.010040625 2.14056880452e-175
349 1 -0.024215625 -0.00125 -0.008859375 3.04263673147e-242
350 1 -0.024215625 -0.00125 -0.007678125 1.19910645613e-147
351 1 -0.024215625 -0.00125 -0.006496875 4.67526353205e-81
352 1 -0.024215625 -0.00125 -0.005315625 2.07599960621e-46
353 1 -0.024215625 -0.00125 -0.004134375 2.25963609857e-73
354 1 -0.024215625 -0.00125 -0.002953125 4.86808447992e-54
355 1 -0.024215625 -0.00125 -0.001771875 1.55042736345e-22
356 1 -0.024215625 -0.00125 -0.000590625 2.43115339566e-07
357 1 -0.024215625 -0.00125 0.000590625 5.86900478842e-07
358 1 -0.024215625 -0.00125 0.001771875 1.51796008911e-06
359 1 -0.024215625 -0.00125 0.002953125 3.41245443813e-05
360 1 -0.024215625 -0.00125 0.004134375 0.00227207013674
361 1 -0.024215625 -0.00125 0.005315625 0.00258318086103
362 1 -0.024215625 -0.00125 0.006496875 0.000297386389559
363 1 -0.024215625 -0.00125 0.007678125 9.10813723454e-07
364 1 -0.024215625 -0.00125 0.008859375 3.27631318141e-08
365 1 -0.024215625 -0.00125 0.010040625 1.66779186104e-23
366 1 -0.024215625 -0.00125 0.011221875 3.72446462827e-37
367 1 -0.024215625 -0.00125 0.012403125 9.58122259126e-37
368 1 -0.024215625 -0.00125 0.013584375 8.13957498068e-31
369 1 -0.024215625 -0.00125 0.014765625 4.94453002421e-103
370 1 -0.024215625 -0.00125 0.015946875 0.0
371 1 -0.024215625 -0.00125 0.017128125 0.0
372 1 -0.024215625 -0.00125 0.018309375 3.56060509821e-72
373 1 -0.024215625 -0.00125 0.019490625 1.73706461079e-47
374 1 -0.024215625 -0.00125 0.020671875 2.91675005208e-20
375 1 -0.024215625 -0.00125 0.021853125 3.34776915107e-09
376 1 -0.024215625 -0.00125 0.023034375 6.26126892665e-10
377 1 -0.024215625 -0.00125 0.024215625 5.71803139365e-75
378 1 -0.024215625 -0.00125 0.025396875 3.40723366366e-151
379 1 -0.024215625 -0.00125 0.026578125 1.0319811221e-65
380 1 -0.024215625 -0.00125 0.027759375 4.20763165534e-42
381 1 -0.023034375 -0.00125 -0.027759375 0.0
382 1 -0.023034375 -0.00125 -0.026578125 0.0
383 1 -0.023034375 -0.00125 -0.025396875 0.0
384 1 -0.023034375 -0.00125 -0.024215625 0.0
385 1 -0.023034375 -0.00125 -0.023034375 0.0
386 1 -0.023034375 -0.00125 -0.021853125 0.0
387 1 -0.023034375 -0.00125 -0.020671875 5.67288998534e-85
388 1 -0.023034375 -0.00125 -0.019490625 1.09010361713e-27
389 1 -0.023034375 -0.00125 -0.018309375 2.2155236563e-14
390 1 -0.023034375 -0.00125 -0.017128125 7.80469795043e-10
391 1 -0.023034375 -0.00125 -0.015946875 6.73053244442e-05
392 1 -0.023034375 -0.00125 -0.014765625 0.0180220005793
393 1 -0.023034375 -0.00125 -0.013584375 0.00458301459924
394 1 -0.023034375 -0.00125 -0.012403125 1.05826535198e-09
395 1 -0.023034375 -0.00125 -0.011221875 1.10564380926e-40
396 1 -0.023034375 -0.00125 -0.010040625 3.36265754298e-82
397 1 -0.023034375 -0.00125 -0.008859375 7.17396035775e-118
398 1 -0.023034375 -0.00125 -0.007678125 2.30649460737e-56
399 1 -0.023034375 -0.00125 -0.006496875 3.32204214351e-32
400 1 -0.023034375 -0.00125 -0.005315625 2.4483492676e-16
401 1 -0.023034375 -0.00125 -0.004134375 6.3183310252e-12
402 1 -0.023034375 -0.00125 -0.002953125 2.14352801872e-06
403 1 -0.023034375 -0.00125 -0.001771875 0.00244734919448
404 1 -0.023034375 -0.00125 -0.000590625 0.0313773267941
405 1 -0.023034375 -0.00125 0.000590625 0.0535472482627
406 1 -0.023034375 -0.00125 0.001771875 0.0342117943169
407 1 -0.023034375 -0.00125 0.002953125 0.0855185839753
408 1 -0.023034375 -0.00125 0.004134375 0.171185660421
409 1 -0.023034375 -0.00125 0.005315625 0.188163765767
410 1 -0.023034375 -0.00125 0.006496875 0.0947867495621
411 1 -0.023034375 -0.00125 0.007678125 0.0428047392357
412 1 -0.023034375 -0.00125 0.008859375 0.034710828668
413 1 -0.023034375 -0.00125 0.010040625 0.0015962569398
414 1 -0.023034375 -0.00125 0.011221875 7.411627413e-05
415 1 -0.023034375 -0.00125 0.012403125 2.56605764104e-06
416 1 -0.023034375 -0.00125 0.013584375 4.39679804992e-08
417 1 -0.023034375 -0.00125 0.014765625 4.5733882313e-18
418 1 -0.023034375 -0.00125 0.015946875 4.68874486995e-76
419 1 -0.023034375 -0.00125 0.017128125 1.13435962252e-208
420 1 -0.023034375 -0.00125 0.018309375 2.45698230739e-57
421 1 -0.023034375 -0.00125 0.019490625 2.14902045202e-37
422 1 -0.023034375 -0.00125 0.020671875 6.48177730411e-16
423 1 -0.023034375 -0.00125 0.021853125 4.2232425936e-07
424 1 -0.023034375 -0.00125 0.023034375 4.2694019175e-08
425 1 -0.023034375 -0.00125 0.024215625 3.52029884321e-27
426 1 -0.023034375 -0.00125 0.025396875 6.81200695301e-55
427 1 -0.023034375 -0.00125 0.026578125 3.2989413945e-65
428 1 -0.023034375 -0.00125 0.027759375 1.32298270596e-49
429 1 -0.021853125 -0.00125 -0.028940625 0.0
430 1 -0.021853125 -0.00125 -0.027759375 0.0
431 1 -0.021853125 -0.00125 -0.026578125 0.0
432 1 -0.021853125 -0.00125 -0.025396875 0.0
433 1 -0.021853125 -0.00125 -0.024215625 0.0
434 1 -0.021853125 -0.00125 -0.023034375 0.0
435 1 -0.021853125 -0.00125 -0.021853125 1.78496533781e-61
436 1 -0.021853125 -0.00125 -0.020671875 5.26438756132e-44
437 1 -0.021853125 -0.00125 -0.019490625 4.28988438424e-12
438 1 -0.021853125 -0.00125 -0.018309375 2.74741860567e-07
439 1 -0.021853125 -0.00125 -0.017128125 1.256522343e-05
440 1 -0.021853125 -0.00125 -0.015946875 0.000464731453306
441 1 -0.021853125 -0.00125 -0.014765625 0.0273755148783
442 1 -0.021853125 -0.00125 -0.013584375 0.00169968183555
443 1 -0.021853125 -0.00125 -0.012403125 3.1712555024e-06
444 1 -0.021853125 -0.00125 -0.011221875 3.78689389453e-14
445 1 -0.021853125 -0.00125 -0.010040625 1.03050677439e-21
446 1 -0.021853125 -0.00125 -0.008859375 3.96506404116e-35
447 1 -0.021853125 -0.00125 -0.007678125 8.5727067755e-20
448 1 -0.021853125 -0.00125 -0.006496875 2.99127523431e-14
449 1 -0.021853125 -0.00125 -0.005315625 1.45466669431e-06
450 1 -0.021853125 -0.00125 -0.004134375 9.13790708795e-05
451 1 -0.021853125 -0.00125 -0.002953125 0.0135551499639
452 1 -0.021853125 -0.00125 -0.001771875 0.0371483002296
453 1 -0.021853125 -0.00125 -0.000590625 0.0692334918182
454 1 -0.021853125 -0.00125 0.000590625 0.121647485873
455 1 -0.021853125 -0.00125 0.001771875 0.129361113799
456 1 -0.021853125 -0.00125 0.002953125 0.156095517568
457 1 -0.021853125 -0.00125 0.004134375 0.172150423016
458 1 -0.021853125 -0.00125 0.005315625 0.232925424997
459 1 -0.021853125 -0.00125 0.006496875 0.286958133331
460 1 -0.021853125 -0.00125 0.007678125 0.224140588335
461 1 -0.021853125 -0.00125 0.008859375 0.205109584384
462 1 -0.021853125 -0.00125 0.010040625 0.237868004907
463 1 -0.021853125 -0.00125 0.011221875 0.133769604833
464 1 -0.021853125 -0.00125 0.012403125 0.0598726549773
465 1 -0.021853125 -0.00125 0.013584375 0.0071967394183
466 1 -0.021853125 -0.00125 0.014765625 2.68912989949e-08
467 1 -0.021853125 -0.00125 0.015946875 7.20825036711e-25
468 1 -0.021853125 -0.00125 0.017128125 6.34907825244e-55
469 1 -0.021853125 -0.00125 0.018309375 1.83977039602e-32
470 1 -0.021853125 -0.00125 0.019490625 1.33803173818e-25
471 1 -0.021853125 -0.00125 0.020671875 9.51950719935e-12
472 1 -0.021853125 -0.00125 0.021853125 5.93238903404e-07
473 1 -0.021853125 -0.00125 0.023034375 2.86789657882e-06
474 1 -0.021853125 -0.00125 0.024215625 6.49852818547e-07
475 1 -0.021853125 -0.00125 0.025396875 7.43361206364e-09
476 1 -0.021853125 -0.00125 0.026578125 3.22614929555e-22
477 1 -0.021853125 -0.00125 0.027759375 4.02359474654e-20
478 1 -0.021853125 -0.00125 0.028940625 6.26159007176e-15
479 1 -0.020671875 -0.00125 -0.030121875 0.0
480 1 -0.020671875 -0.00125 -0.028940625 0.0
481 1 -0.020671875 -0.00125 -0.027759375 0.0
482 1 -0.020671875 -0.00125 -0.026578125 0.0
483 1 -0.020671875 -0.00125 -0.025396875 0.0
484 1 -0.020671875 -0.00125 -0.024215625 0.0
485 1 -0.020671875 -0.00125 -0.023034375 2.5133030664e-182
486 1 -0.020671875 -0.00125 -0.021853125 6.22013150354e-32
487 1 -0.020671875 -0.00125 -0.020671875 1.01604434482e-30
488 1 -0.020671875 -0.00125 -0.019490625 4.94195517286e-13
489 1 -0.020671875 -0.00125 -0.018309375 1.14384964243e-05
490 1 -0.020671875 -0.00125 -0.017128125 0.000387846406239
491 1 -0.020671875 -0.00125 -0.015946875 0.0148087734417
492 1 -0.020671875 -0.00125 -0.014765625 0.0773971753134
493 1 -0.020671875 -0.00125 -0.013584375 0.0270547686591
494 1 -0.020671875 -0.00125 -0.012403125 0.00140331656268
495 1 -0.020671875 -0.00125 -0.011221875 1.29769920955e-06
496 1 -0.020671875 -0.00125 -0.010040625 1.23441427492e-10
497 1 -0.020671875 -0.00125 -0.008859375 1.0537659565e-12
498 1 -0.020671875 -0.00125 -0.007678125 7.8994571794e-08
499 1 -0.020671875 -0.00125 -0.006496875 6.93861050081e-09
500 1 -0.020671875 -0.00125 -0.005315625 2.26719887211e-06
501 1 -0.020671875 -0.00125 -0.004134375 1.33996266479e-05
502 1 -0.020671875 -0.00125 -0.002953125 0.000104907672403
503 1 -0.020671875 -0.00125 -0.001771875 0.00259524902284
504 1 -0.020671875 -0.00125 -0.000590625 0.00261920466452
505 1 -0.020671875 -0.00125 0.000590625 0.00283183910293
506 1 -0.020671875 -0.00125 0.001771875 0.00282318878574
507 1 -0.020671875 -0.00125 0.002953125 0.00245800292718
508 1 -0.020671875 -0.00125 0.004134375 0.00812875131391
509 1 -0.020671875 -0.00125 0.005315625 0.0123265651123
510 1 -0.020671875 -0.00125 0.006496875 0.0124736786109
511 1 -0.020671875 -0.00125 0.007678125 0.0211335761389
512 1 -0.020671875 -0.00125 0.008859375 0.0157026581281
513 1 -0.020671875 -0.00125 0.010040625 0.0852890786474
514 1 -0.020671875 -0.00125 0.011221875 0.129276704336
515 1 -0.020671875 -0.00125 0.012403125 0.119648516521
516 1 -0.020671875 -0.00125 0.013584375 0.0653742576627
517 1 -0.020671875 -0.00125 0.014765625 0.00448395262137
518 1 -0.020671875 -0.00125 0.015946875 3.179142726e-06
519 1 -0.020671875 -0.00125 0.017128125 8.73000448899e-16
520 1 -0.020671875 -0.00125 0.018309375 1.69743886341e-17
521 1 -0.020671875 -0.00125 0.019490625 1.19942032838e-13
522 1 -0.020671875 -0.00125 0.020671875 7.11003732541e-07
523 1 -0.020671875 -0.00125 0.021853125 2.53550008502e-05
524 1 -0.020671875 -0.00125 0.023034375 4.69061253795e-05
525 1 -0.020671875 -0.00125 0.024215625 0.000204913242763
526 1 -0.020671875 -0.00125 0.025396875 0.000991190184812
527 1 -0.020671875 -0.00125 0.026578125 2.22734124258e-06
528 1 -0.020671875 -0.00125 0.027759375 3.44235229735e-08
529 1 -0.020671875 -0.00125 0.028940625 1.07997501177e-07
530 1 -0.020671875 -0.00125 0.030121875 1.96778152945e-11
531 1 -0.019490625 -0.00125 -0.031303125 7.22835904302e-106
532 1 -0.019490625 -0.00125 -0.030121875 0.0
533 1 -0.019490625 -0.00125 -0.028940625 0.0
534 1 -0.019490625 -0.00125 -0.027759375 0.0
535 1 -0.019490625 -0.00125 -0.026578125 0.0
536 1 -0.019490625 -0.00125 -0.025396875 5.35111991131e-96
537 1 -0.019490625 -0.00125 -0.024215625 5.84698108869e-87
538 1 -0.019490625 -0.00125 -0.023034375 4.90541006728e-42
539 1 -0.019490625 -0.00125 -0.021853125 6.67401892461e-12
540 1 -0.019490625 -0.00125 -0.020671875 2.29243110358e-13