ITEM: TIMESTEP
0
ITEM: NUMBER OF ATOMS
3080
ITEM: BOX BOUNDS ss ss ss
-3.7007399999999996e-02 3.7007399999999996e-02
-2.0002499999999999e-03 2.5000000000000004e-07
-3.7007399999999996e-02 3.7007399999999996e-02
ITEM: ATOMS id type x y z c_1
0 1 -0.037209375 -0.00125 -0.000590625 0.301556925566
1 1 -0.036028125 -0.00125 -0.007678125 0.0
2 1 -0.036028125 -0.00125 -0.006496875 0.0
3 1 -0.036028125 -0.00125 -0.005315625 0.0
4 1 -0.036028125 -0.00125 -0.004134375 0.0
5 1 -0.036028125 -0.00125 -0.002953125 0.0
6 1 -0.036028125 -0.00125 -0.001771875 0.0
7 1 -0.036028125 -0.00125 -0.000590625 0.0
8 1 -0.036028125 -0.00125 0.000590625 0.0
9 1 -0.036028125 -0.00125 0.001771875 0.0
10 1 -0.036028125 -0.00125 0.002953125 0.0
11 1 -0.036028125 -0.00125 0.004134375 0.0
12 1 -0.036028125 -0.00125 0.005315625 0.0
13 1 -0.036028125 -0.00125 0.006496875 0.0
14 1 -0.036028125 -0.00125 0.007678125 0.0
15 1 -0.034846875 -0.00125 -0.011221875 0.0
16 1 -0.034846875 -0.00125 -0.010040625 0.0
17 1 -0.034846875 -0.00125 -0.008859375 0.0
18 1 -0.034846875 -0.00125 -0.007678125 0.0
19 1 -0.034846875 -0.00125 -0.006496875 0.0
20 1 -0.034846875 -0.00125 -0.005315625 0.0
21 1 -0.034846875 -0.00125 -0.004134375 0.0
22 1 -0.034846875 -0.00125 -0.002953125 0.0
23 1 -0.034846875 -0.00125 -0.001771875 0.0
24 1 -0.034846875 -0.00125 -0.000590625 0.0
25 1 -0.034846875 -0.00125 0.000590625 0.0
26 1 -0.034846875 -0.00125 0.001771875 0.0
27 1 -0.034846875 -0.00125 0.002953125 0.0
28 1 -0.034846875 -0.00125 0.004134375 0.0
29 1 -0.034846875 -0.00125 0.005315625 0.0
30 1 -0.034846875 -0.00125 0.006496875 0.0
31 1 -0.034846875 -0.00125 0.007678125 0.0
32 1 -0.034846875 -0.00125 0.008859375 0.0
33 1 -0.034846875 -0.00125 0.010040625 0.0
34 1 -0.034846875 -0.00125 0.011221875 0.0
35 1 -0.033665625 -0.00125 -0.013584375 0.0
36 1 -0.033665625 -0.00125 -0.012403125 0.0
37 1 -0.033665625 -0.00125 -0.011221875 0.0
38 1 -0.033665625 -0.00125 -0.010040625 0.0
39 1 -0.033665625 -0.00125 -0.008859375 0.0
40 1 -0.033665625 -0.00125 -0.007678125 0.0
41 1 -0.033665625 -0.00125 -0.006496875 0.0
42 1 -0.033665625 -0.00125 -0.005315625 0.0
43 1 -0.033665625 -0.00125 -0.004134375 0.0
44 1 -0.033665625 -0.00125 -0.002953125 0.0
45 1 -0.033665625 -0.00125 -0.001771875 0.0
46 1 -0.033665625 -0.00125 -0.000590625 0.0
47 1 -0.033665625 -0.00125 0.000590625 0.0
48 1 -0.033665625 -0.00125 0.001771875 0.0
49 1 -0.033665625 -0.00125 0.002953125 0.0
50 1 -0.033665625 -0.00125 0.004134375 0.0
51 1 -0.033665625 -0.00125 0.005315625 0.0
52 1 -0.033665625 -0.00125 0.006496875 0.0
53 1 -0.033665625 -0.00125 0.007678125 0.0
54 1 -0.033665625 -0.00125 0.008859375 0.0
55 1 -0.033665625 -0.00125 0.010040625 0.0
56 1 -0.033665625 -0.00125 0.011221875 0.0
57 1 -0.033665625 -0.00125 0.012403125 2.52382270808e-285
58 1 -0.033665625 -0.00125 0.013584375 0.0
59 1 -0.032484375 -0.00125 -0.018309375 0.0
60 1 -0.032484375 -0.00125 -0.017128125 0.0
61 1 -0.032484375 -0.00125 -0.015946875 0.0
62 1 -0.032484375 -0.00125 -0.014765625 0.0
63 1 -0.032484375 -0.00125 -0.013584375 0.0
64 1 -0.032484375 -0.00125 -0.012403125 0.0
65 1 -0.032484375 -0.00125 -0.011221875 0.0
66 1 -0.032484375 -0.00125 -0.010040625 0.0
67 1 -0.032484375 -0.00125 -0.008859375 0.0
68 1 -0.032484375 -0.00125 -0.007678125 0.0
69 1 -0.032484375 -0.00125 -0.006496875 0.0
70 1 -0.032484375 -0.00125 -0.005315625 0.0
71 1 -0.032484375 -0.00125 -0.004134375 0.0
72 1 -0.032484375 -0.00125 -0.002953125 0.0
73 1 -0.032484375 -0.00125 -0.001771875 0.0
74 1 -0.032484375 -0.00125 -0.000590625 0.0
75 1 -0.032484375 -0.00125 0.000590625 0.0
76 1 -0.032484375 -0.00125 0.001771875 0.0
77 1 -0.032484375 -0.00125 0.002953125 0.0
78 1 -0.032484375 -0.00125 0.004134375 0.0
79 1 -0.032484375 -0.00125 0.005315625 0.0
80 1 -0.032484375 -0.00125 0.006496875 0.0
81 1 -0.032484375 -0.00125 0.007678125 0.0
82 1 -0.032484375 -0.00125 0.008859375 0.0
83 1 -0.032484375 -0.00125 0.010040625 0.0
84 1 -0.032484375 -0.00125 0.011221875 0.0
85 1 -0.032484375 -0.00125 0.012403125 0.0
86 1 -0.032484375 -0.00125 0.013584375 0.0
87 1 -0.032484375 -0.00125 0.014765625 0.0
88 1 -0.032484375 -0.00125 0.015946875 0.0
89 1 -0.032484375 -0.00125 0.017128125 0.0
90 1 -0.032484375 -0.00125 0.018309375 0.0
91 1 -0.031303125 -0.00125 -0.019490625 0.0
92 1 -0.031303125 -0.00125 -0.018309375 0.0
93 1 -0.031303125 -0.00125 -0.017128125 0.0
94 1 -0.031303125 -0.00125 -0.015946875 0.0
95 1 -0.031303125 -0.00125 -0.014765625 0.0
96 1 -0.031303125 -0.00125 -0.013584375 0.0
97 1 -0.031303125 -0.00125 -0.012403125 0.0
98 1 -0.031303125 -0.00125 -0.011221875 0.0
99 1 -0.031303125 -0.00125 -0.010040625 0.0
100 1 -0.031303125 -0.00125 -0.008859375 0.0
101 1 -0.031303125 -0.00125 -0.007678125 0.0
102 1 -0.031303125 -0.00125 -0.006496875 0.0
103 1 -0.031303125 -0.00125 -0.005315625 0.0
104 1 -0.031303125 -0.00125 -0.004134375 0.0
105 1 -0.031303125 -0.00125 -0.002953125 0.0
106 1 -0.031303125 -0.00125 -0.001771875 0.0
107 1 -0.031303125 -0.00125 -0.000590625 0.0
108 1 -0.031303125 -0.00125 0.000590625 0.0
109 1 -0.031303125 -0.00125 0.001771875 0.0
110 1 -0.031303125 -0.00125 0.002953125 0.0
111 1 -0.031303125 -0.00125 0.004134375 0.0
112 1 -0.031303125 -0.00125 0.005315625 0.0
113 1 -0.031303125 -0.00125 0.006496875 0.0
114 1 -0.031303125 -0.00125 0.007678125 0.0
115 1 -0.031303125 -0.00125 0.008859375 0.0
116 1 -0.031303125 -0.00125 0.010040625 0.0
117 1 -0.031303125 -0.00125 0.011221875 0.0
118 1 -0.031303125 -0.00125 0.012403125 0.0
119 1 -0.031303125 -0.00125 0.013584375 0.0
120 1 -0.031303125 -0.00125 0.014765625 0.0
121 1 -0.031303125 -0.00125 0.015946875 0.0
122 1 -0.031303125 -0.00125 0.017128125 0.0
123 1 -0.031303125 -0.00125 0.018309375 0.0
124 1 -0.031303125 -0.00125 0.019490625 0.0
125 1 -0.030121875 -0.00125 -0.020671875 0.0
126 1 -0.030121875 -0.00125 -0.019490625 0.0
127 1 -0.030121875 -0.00125 -0.018309375 0.0
128 1 -0.030121875 -0.00125 -0.017128125 0.0
129 1 -0.030121875 -0.00125 -0.015946875 0.0
130 1 -0.030121875 -0.00125 -0.014765625 0.0
131 1 -0.030121875 -0.00125 -0.013584375 0.0
132 1 -0.030121875 -0.00125 -0.012403125 0.0
133 1 -0.030121875 -0.00125 -0.011221875 0.0
134 1 -0.030121875 -0.00125 -0.010040625 0.0
135 1 -0.030121875 -0.00125 -0.008859375 0.0
136 1 -0.030121875 -0.00125 -0.007678125 0.0
137 1 -0.030121875 -0.00125 -0.006496875 0.0
138 1 -0.030121875 -0.00125 -0.005315625 0.0
139 1 -0.030121875 -0.00125 -0.004134375 0.0
140 1 -0.030121875 -0.00125 -0.002953125 0.0
141 1 -0.030121875 -0.00125 -0.001771875 0.0
142 1 -0.030121875 -0.00125 -0.000590625 0.0
143 1 -0.030121875 -0.00125 0.000590625 0.0
144 1 -0.030121875 -0.00125 0.001771875 0.0
145 1 -0.030121875 -0.00125 0.002953125 0.0
146 1 -0.030121875 -0.00125 0.004134375 0.0
147 1 -0.030121875 -0.00125 0.005315625 0.0
148 1 -0.030121875 -0.00125 0.006496875 0.0
149 1 -0.030121875 -0.00125 0.007678125 0.0
150 1 -0.030121875 -0.00125 0.008859375 0.0
151 1 -0.030121875 -0.00125 0.010040625 0.0
152 1 -0.030121875 -0.00125 0.011221875 0.0
153 1 -0.030121875 -0.00125 0.012403125 0.0
154 1 -0.030121875 -0.00125 0.013584375 0.0
155 1 -0.030121875 -0.00125 0.014765625 0.0
156 1 -0.030121875 -0.00125 0.015946875 0.0
157 1 -0.030121875 -0.00125 0.017128125 0.0
158 1 -0.030121875 -0.00125 0.018309375 0.0
159 1 -0.030121875 -0.00125 0.019490625 0.0
160 1 -0.030121875 -0.00125 0.020671875 0.0
161 1 -0.028940625 -0.00125 -0.021853125 0.0
162 1 -0.028940625 -0.00125 -0.020671875 0.0
163 1 -0.028940625 -0.00125 -0.019490625 0.0
164 1 -0.028940625 -0.00125 -0.018309375 0.0
165 1 -0.028940625 -0.00125 -0.017128125 0.0
166 1 -0.028940625 -0.00125 -0.015946875 0.0
167 1 -0.028940625 -0.00125 -0.014765625 0.0
168 1 -0.028940625 -0.00125 -0.013584375 0.0
169 1 -0.028940625 -0.00125 -0.012403125 0.0
170 1 -0.028940625 -0.00125 -0.011221875 0.0
171 1 -0.028940625 -0.00125 -0.010040625 0.0
172 1 -0.028940625 -0.00125 -0.008859375 0.0
173 1 -0.028940625 -0.00125 -0.007678125 0.0
174 1 -0.028940625 -0.00125 -0.006496875 0.0
175 1 -0.028940625 -0.00125 -0.005315625 0.0
176 1 -0.028940625 -0.00125 -0.004134375 0.0
177 1 -0.028940625 -0.00125 -0.002953125 0.0
178 1 -0.028940625 -0.00125 -0.001771875 0.0
179 1 -0.028940625 -0.00125 -0.000590625 0.0
180 1 -0.028940625 -0.00125 0.000590625 0.0
181 1 -0.028940625 -0.00125 0.001771875 0.0
182 1 -0.028940625 -0.00125 0.002953125 0.0
183 1 -0.028940625 -0.00125 0.004134375 0.0
184 1 -0.028940625 -0.00125 0.005315625 0.0
185 1 -0.028940625 -0.00125 0.006496875 0.0
186 1 -0.028940625 -0.00125 0.007678125 0.0
187 1 -0.028940625 -0.00125 0.008859375 0.0
188 1 -0.028940625 -0.00125 0.010040625 0.0
189 1 -0.028940625 -0.00125 0.011221875 0.0
190 1 -0.028940625 -0.00125 0.012403125 0.0
191 1 -0.028940625 -0.00125 0.013584375 0.0
192 1 -0.028940625 -0.00125 0.014765625 0.0
193 1 -0.028940625 -0.00125 0.015946875 0.0
194 1 -0.028940625 -0.00125 0.017128125 0.0
195 1 -0.028940625 -0.00125 0.018309375 0.0
196 1 -0.028940625 -0.00125 0.019490625 0.0
197 1 -0.028940625 -0.00125 0.020671875 0.0
198 1 -0.028940625 -0.00125 0.021853125 0.0
199 1 -0.027759375 -0.00125 -0.024215625 0.0
200 1 -0.027759375 -0.00125 -0.023034375 0.0
201 1 -0.027759375 -0.00125 -0.021853125 0.0
202 1 -0.027759375 -0.00125 -0.020671875 0.0
203 1 -0.027759375 -0.00125 -0.019490625 0.0
204 1 -0.027759375 -0.00125 -0.018309375 0.0
205 1 -0.027759375 -0.00125 -0.017128125 0.0
206 1 -0.027759375 -0.00125 -0.015946875 0.0
207 1 -0.027759375 -0.00125 -0.014765625 0.0
208 1 -0.027759375 -0.00125 -0.013584375 0.0
209 1 -0.027759375 -0.00125 -0.012403125 0.0
210 1 -0.027759375 -0.00125 -0.011221875 0.0
211 1 -0.027759375 -0.00125 -0.010040625 0.0
212 1 -0.027759375 -0.00125 -0.008859375 0.0
213 1 -0.027759375 -0.00125 -0.007678125 0.0
214 1 -0.027759375 -0.00125 -0.006496875 3.98492478172e-204
215 1 -0.027759375 -0.00125 -0.005315625 3.33602032411e-215
216 1 -0.027759375 -0.00125 -0.004134375 0.0
217 1 -0.027759375 -0.00125 -0.002953125 8.34273489762e-169
218 1 -0.027759375 -0.00125 -0.001771875 0.0
219 1 -0.027759375 -0.00125 -0.000590625 5.35040207039e-95
220 1 -0.027759375 -0.00125 0.000590625 3.64389005618e-123
221 1 -0.027759375 -0.00125 0.001771875 3.17974425255e-176
222 1 -0.027759375 -0.00125 0.002953125 2.01382547975e-141
223 1 -0.027759375 -0.00125 0.004134375 5.06471889718e-148
224 1 -0.027759375 -0.00125 0.005315625 1.42366237016e-264
225 1 -0.027759375 -0.00125 0.006496875 0.0
226 1 -0.027759375 -0.00125 0.007678125 0.0
227 1 -0.027759375 -0.00125 0.008859375 6.73620557432e-227
228 1 -0.027759375 -0.00125 0.010040625 0.0
229 1 -0.027759375 -0.00125 0.011221875 0.0
230 1 -0.027759375 -0.00125 0.012403125 0.0
231 1 -0.027759375 -0.00125 0.013584375 0.0
232 1 -0.027759375 -0.00125 0.014765625 0.0
233 1 -0.027759375 -0.00125 0.015946875 0.0
234 1 -0.027759375 -0.00125 0.017128125 0.0
235 1 -0.027759375 -0.00125 0.018309375 0.0
236 1 -0.027759375 -0.00125 0.019490625 0.0
237 1 -0.027759375 -0.00125 0.020671875 0.0
238 1 -0.027759375 -0.00125 0.021853125 0.0
239 1 -0.027759375 -0.00125 0.023034375 0.0
240 1 -0.027759375 -0.00125 0.024215625 0.0
241 1 -0.026578125 -0.00125 -0.026578125 0.0
242 1 -0.026578125 -0.00125 -0.025396875 0.0
243 1 -0.026578125 -0.00125 -0.024215625 0.0
244 1 -0.026578125 -0.00125 -0.023034375 0.0
245 1 -0.026578125 -0.00125 -0.021853125 0.0
246 1 -0.026578125 -0.00125 -0.020671875 0.0
247 1 -0.026578125 -0.00125 -0.019490625 0.0
248 1 -0.026578125 -0.00125 -0.018309375 0.0
249 1 -0.026578125 -0.00125 -0.017128125 0.0
250 1 -0.026578125 -0.00125 -0.015946875 0.0
251 1 -0.026578125 -0.00125 -0.014765625 0.0
252 1 -0.026578125 -0.00125 -0.013584375 0.0
253 1 -0.026578125 -0.00125 -0.012403125 1.5823723179e-241
254 1 -0.026578125 -0.00125 -0.011221875 2.86832210272e-159
255 1 -0.026578125 -0.00125 -0.010040625 0.0
256 1 -0.026578125 -0.00125 -0.008859375 0.0
257 1 -0.026578125 -0.00125 -0.007678125 2.80701488949e-66
258 1 -0.026578125 -0.00125 -0.006496875 2.14686004756e-68
259 1 -0.026578125 -0.00125 -0.005315625 3.61407386105e-64
260 1 -0.026578125 -0.00125 -0.004134375 5.29509223241e-118
261 1 -0.026578125 -0.00125 -0.002953125 1.65409443123e-146
262 1 -0.026578125 -0.00125 -0.001771875 3.26685101091e-81
263 1 -0.026578125 -0.00125 -0.000590625 3.36488769838e-49
264 1 -0.026578125 -0.00125 0.000590625 3.4090963472e-52
265 1 -0.026578125 -0.00125 0.001771875 4.67575365354e-38
266 1 -0.026578125 -0.00125 0.002953125 7.5822903009e-46
267 1 -0.026578125 -0.00125 0.004134375 3.79968948218e-86
268 1 -0.026578125 -0.00125 0.005315625 2.20806253431e-86
269 1 -0.026578125 -0.00125 0.006496875 1.23166937281e-152
270 1 -0.026578125 -0.00125 0.007678125 9.9361029764e-63
271 1 -0.026578125 -0.00125 0.008859375 5.34171718071e-134
272 1 -0.026578125 -0.00125 0.010040625 2.87495091229e-193
273 1 -0.026578125 -0.00125 0.011221875 0.0
274 1 -0.026578125 -0.00125 0.012403125 0.0
275 1 -0.026578125 -0.00125 0.013584375 0.0
276 1 -0.026578125 -0.00125 0.014765625 0.0
277 1 -0.026578125 -0.00125 0.015946875 0.0
278 1 -0.026578125 -0.00125 0.017128125 0.0
279 1 -0.026578125 -0.00125 0.018309375 0.0
280 1 -0.026578125 -0.00125 0.019490625 0.0
281 1 -0.026578125 -0.00125 0.020671875 0.0
282 1 -0.026578125 -0.00125 0.021853125 0.0
283 1 -0.026578125 -0.00125 0.023034375 0.0
284 1 -0.026578125 -0.00125 0.024215625 0.0
285 1 -0.026578125 -0.00125 0.025396875 0.0
286 1 -0.026578125 -0.00125 0.026578125 0.0
287 1 -0.025396875 -0.00125 -0.026578125 0.0
288 1 -0.025396875 -0.00125 -0.025396875 0.0
289 1 -0.025396875 -0.00125 -0.024215625 0.0
290 1 -0.025396875 -0.00125 -0.023034375 0.0
291 1 -0.025396875 -0.00125 -0.021853125 0.0
292 1 -0.025396875 -0.00125 -0.020671875 0.0
293 1 -0.025396875 -0.00125 -0.019490625 0.0
294 1 -0.025396875 -0.00125 -0.018309375 0.0
295 1 -0.025396875 -0.00125 -0.017128125 0.0
296 1 -0.025396875 -0.00125 -0.015946875 0.0
297 1 -0.025396875 -0.00125 -0.014765625 0.0
298 1 -0.025396875 -0.00125 -0.013584375 0.0
299 1 -0.025396875 -0.00125 -0.012403125 1.84556431632e-139
300 1 -0.025396875 -0.00125 -0.011221875 7.51162952708e-245
301 1 -0.025396875 -0.00125 -0.010040625 2.25618184015e-87
302 1 -0.025396875 -0.00125 -0.008859375 8.95331703019e-137
303 1 -0.025396875 -0.00125 -0.007678125 5.35779372125e-67
304 1 -0.025396875 -0.00125 -0.006496875 8.85789142425e-184
305 1 -0.025396875 -0.00125 -0.005315625 3.41934049296e-69
306 1 -0.025396875 -0.00125 -0.004134375 3.2910731325e-144
307 1 -0.025396875 -0.00125 -0.002953125 1.09615006105e-68
308 1 -0.025396875 -0.00125 -0.001771875 1.91717392628e-55
309 1 -0.025396875 -0.00125 -0.000590625 5.4207672116e-97
310 1 -0.025396875 -0.00125 0.000590625 8.52932288293e-56
311 1 -0.025396875 -0.00125 0.001771875 4.47163628362e-44
312 1 -0.025396875 -0.00125 0.002953125 2.38707118484e-55
313 1 -0.025396875 -0.00125 0.004134375 1.18819993822e-29
314 1 -0.025396875 -0.00125 0.005315625 1.73732772852e-43
315 1 -0.025396875 -0.00125 0.006496875 1.87335125252e-74
316 1 -0.025396875 -0.00125 0.007678125 1.3586374894e-43
317 1 -0.025396875 -0.00125 0.008859375 2.03082009999e-59
318 1 -0.025396875 -0.00125 0.010040625 3.624495761e-56
319 1 -0.025396875 -0.00125 0.011221875 9.32870941632e-70
320 1 -0.025396875 -0.00125 0.012403125 0.0
321 1 -0.025396875 -0.00125 0.013584375 1.50177351694e-260
322 1 -0.025396875 -0.00125 0.014765625 0.0
323 1 -0.025396875 -0.00125 0.015946875 0.0
324 1 -0.025396875 -0.00125 0.017128125 0.0
325 1 -0.025396875 -0.00125 0.018309375 1.39810650918e-300
326 1 -0.025396875 -0.00125 0.019490625 0.0
327 1 -0.025396875 -0.00125 0.020671875 0.0
328 1 -0.025396875 -0.00125 0.021853125 0.0
329 1 -0.025396875 -0.00125 0.023034375 0.0
330 1 -0.025396875 -0.00125 0.024215625 0.0
331 1 -0.025396875 -0.00125 0.025396875 0.0
332 1 -0.025396875 -0.00125 0.026578125 0.0
333 1 -0.024215625 -0.00125 -0.027759375 0.0
334 1 -0.024215625 -0.00125 -0.026578125 0.0
335 1 -0.024215625 -0.00125 -0.025396875 0.0
336 1 -0.024215625 -0.00125 -0.024215625 0.0
337 1 -0.024215625 -0.00125 -0.023034375 0.0
338 1 -0.024215625 -0.00125 -0.021853125 0.0
339 1 -0.024215625 -0.00125 -0.020671875 0.0
340 1 -0.024215625 -0.00125 -0.019490625 0.0
341 1 -0.024215625 -0.00125 -0.018309375 0.0
342 1 -0.024215625 -0.00125 -0.017128125 0.0
343 1 -0.024215625 -0.00125 -0.015946875 0.0
344 1 -0.024215625 -0.00125 -0.014765625 4.72008131207e-167
345 1 -0.024215625 -0.00125 -0.013584375 4.63429685495e-131
346 1 -0.024215625 -0.00125 -0.012403125 1.92324345027e-56
347 1 -0.024215625 -0.00125 -0.011221875 3.73927939381e-64
348 1 -0.024215625 -0.00125 -0.010040625 3.47298309397e-44
349 1 -0.024215625 -0.00125 -0.008859375 6.74100156994e-70
350 1 -0.024215625 -0.00125 -0.007678125 2.30643069793e-86
351 1 -0.024215625 -0.00125 -0.006496875 9.56077071137e-44
352 1 -0.024215625 -0.00125 -0.005315625 4.16248426527e-23
353 1 -0.024215625 -0.00125 -0.004134375 1.77199707131e-14
354 1 -0.024215625 -0.00125 -0.002953125 3.40950459553e-31
355 1 -0.024215625 -0.00125 -0.001771875 1.23831940886e-33
356 1 -0.024215625 -0.00125 -0.000590625 9.49868037227e-31
357 1 -0.024215625 -0.00125 0.000590625 5.44732205979e-18
358 1 -0.024215625 -0.00125 0.001771875 8.6161952248e-20
359 1 -0.024215625 -0.00125 0.002953125 9.16760673691e-12
360 1 -0.024215625 -0.00125 0.004134375 1.33531124001e-14
361 1 -0.024215625 -0.00125 0.005315625 3.14172774348e-19
362 1 -0.024215625 -0.00125 0.006496875 1.13933574315e-46
363 1 -0.024215625 -0.00125 0.007678125 2.10454851658e-30
364 1 -0.024215625 -0.00125 0.008859375 2.97078167067e-38
365 1 -0.024215625 -0.00125 0.010040625 1.01511827386e-24
366 1 -0.024215625 -0.00125 0.011221875 9.59166971265e-26
367 1 -0.024215625 -0.00125 0.012403125 5.3556683749e-33
368 1 -0.024215625 -0.00125 0.013584375 4.66664363327e-99
369 1 -0.024215625 -0.00125 0.014765625 5.46097367322e-137
370 1 -0.024215625 -0.00125 0.015946875 0.0
371 1 -0.024215625 -0.00125 0.017128125 1.28656986666e-204
372 1 -0.024215625 -0.00125 0.018309375 1.12577934226e-136
373 1 -0.024215625 -0.00125 0.019490625 0.0
374 1 -0.024215625 -0.00125 0.020671875 0.0
375 1 -0.024215625 -0.00125 0.021853125 0.0
376 1 -0.024215625 -0.00125 0.023034375 0.0
377 1 -0.024215625 -0.00125 0.024215625 0.0
378 1 -0.024215625 -0.00125 0.025396875 0.0
379 1 -0.024215625 -0.00125 0.026578125 0.0
380 1 -0.024215625 -0.00125 0.027759375 0.0
381 1 -0.023034375 -0.00125 -0.027759375 0.0
382 1 -0.023034375 -0.00125 -0.026578125 0.0
383 1 -0.023034375 -0.00125 -0.025396875 0.0
384 1 -0.023034375 -0.00125 -0.024215625 0.0
385 1 -0.023034375 -0.00125 -0.023034375 0.0
386 1 -0.023034375 -0.00125 -0.021853125 0.0
387 1 -0.023034375 -0.00125 -0.020671875 0.0
388 1 -0.023034375 -0.00125 -0.019490625 0.0
389 1 -0.023034375 -0.00125 -0.018309375 0.0
390 1 -0.023034375 -0.00125 -0.017128125 2.32673477461e-264
391 1 -0.023034375 -0.00125 -0.015946875 3.22810093283e-224
392 1 -0.023034375 -0.00125 -0.014765625 5.45050150533e-94
393 1 -0.023034375 -0.00125 -0.013584375 6.28971587569e-102
394 1 -0.023034375 -0.00125 -0.012403125 1.8846243456e-57
395 1 -0.023034375 -0.00125 -0.011221875 3.8946130865e-56
396 1 -0.023034375 -0.00125 -0.010040625 1.41343385099e-59
397 1 -0.023034375 -0.00125 -0.008859375 1.43032393636e-82
398 1 -0.023034375 -0.00125 -0.007678125 5.63754964946e-43
399 1 -0.023034375 -0.00125 -0.006496875 1.23586103744e-39
400 1 -0.023034375 -0.00125 -0.005315625 4.53687953492e-29
401 1 -0.023034375 -0.00125 -0.004134375 1.23213738392e-56
402 1 -0.023034375 -0.00125 -0.002953125 3.10136796193e-18
403 1 -0.023034375 -0.00125 -0.001771875 1.21277347442e-24
404 1 -0.023034375 -0.00125 -0.000590625 3.01669455475e-16
405 1 -0.023034375 -0.00125 0.000590625 4.0243792728e-17
406 1 -0.023034375 -0.00125 0.001771875 8.64457653585e-10
407 1 -0.023034375 -0.00125 0.002953125 2.03456302677e-10
408 1 -0.023034375 -0.00125 0.004134375 5.74215992984e-15
409 1 -0.023034375 -0.00125 0.005315625 9.1216367322e-52
410 1 -0.023034375 -0.00125 0.006496875 1.33154322267e-15
411 1 -0.023034375 -0.00125 0.007678125 7.48405896106e-17
412 1 -0.023034375 -0.00125 0.008859375 2.83138297632e-21
413 1 -0.023034375 -0.00125 0.010040625 2.62062951556e-51
414 1 -0.023034375 -0.00125 0.011221875 4.32984291268e-53
415 1 -0.023034375 -0.00125 0.012403125 1.4823347537e-60
416 1 -0.023034375 -0.00125 0.013584375 4.44934611072e-106
417 1 -0.023034375 -0.00125 0.014765625 3.38987425531e-144
418 1 -0.023034375 -0.00125 0.015946875 7.82785554131e-92
419 1 -0.023034375 -0.00125 0.017128125 1.09269441113e-251
420 1 -0.023034375 -0.00125 0.018309375 7.96713544928e-196
421 1 -0.023034375 -0.00125 0.019490625 6.89483522014e-230
422 1 -0.023034375 -0.00125 0.020671875 0.0
423 1 -0.023034375 -0.00125 0.021853125 0.0
424 1 -0.023034375 -0.00125 0.023034375 0.0
425 1 -0.023034375 -0.00125 0.024215625 0.0
426 1 -0.023034375 -0.00125 0.025396875 0.0
427 1 -0.023034375 -0.00125 0.026578125 0.0
428 1 -0.023034375 -0.00125 0.027759375 0.0
429 1 -0.021853125 -0.00125 -0.028940625 0.0
430 1 -0.021853125 -0.00125 -0.027759375 0.0
431 1 -0.021853125 -0.00125 -0.026578125 0.0
432 1 -0.021853125 -0.00125 -0.025396875 0.0
433 1 -0.021853125 -0.00125 -0.024215625 0.0
434 1 -0.021853125 -0.00125 -0.023034375 0.0
435 1 -0.021853125 -0.00125 -0.021853125 1.53034092345e-104
436 1 -0.021853125 -0.00125 -0.020671875 9.72889589232e-125
437 1 -0.021853125 -0.00125 -0.019490625 2.84000996059e-307
438 1 -0.021853125 -0.00125 -0.018309375 0.0
439 1 -0.021853125 -0.00125 -0.017128125 3.02413312745e-97
440 1 -0.021853125 -0.00125 -0.015946875 6.82787218773e-37
441 1 -0.021853125 -0.00125 -0.014765625 4.56914006601e-32
442 1 -0.021853125 -0.00125 -0.013584375 1.88144640889e-38
443 1 -0.021853125 -0.00125 -0.012403125 1.49794460766e-24
444 1 -0.021853125 -0.00125 -0.011221875 2.17784271379e-24
445 1 -0.021853125 -0.00125 -0.010040625 3.39291253693e-41
446 1 -0.021853125 -0.00125 -0.008859375 1.98789095384e-37
447 1 -0.021853125 -0.00125 -0.007678125 3.39458669946e-14
448 1 -0.021853125 -0.00125 -0.006496875 4.05483552638e-21
449 1 -0.021853125 -0.00125 -0.005315625 1.65026211781e-28
450 1 -0.021853125 -0.00125 -0.004134375 1.23720020647e-15
451 1 -0.021853125 -0.00125 -0.002953125 9.98611379445e-16
452 1 -0.021853125 -0.00125 -0.001771875 2.24270033213e-14
453 1 -0.021853125 -0.00125 -0.000590625 1.49891796497e-09
454 1 -0.021853125 -0.00125 0.000590625 1.343690621e-11
455 1 -0.021853125 -0.00125 0.001771875 6.17633627572e-14
456 1 -0.021853125 -0.00125 0.002953125 9.5153203396e-13
457 1 -0.021853125 -0.00125 0.004134375 8.56725102955e-16
458 1 -0.021853125 -0.00125 0.005315625 2.49264122433e-17
459 1 -0.021853125 -0.00125 0.006496875 8.71938248716e-19
460 1 -0.021853125 -0.00125 0.007678125 9.07754135465e-23
461 1 -0.021853125 -0.00125 0.008859375 1.02790134217e-12
462 1 -0.021853125 -0.00125 0.010040625 4.27858790181e-28
463 1 -0.021853125 -0.00125 0.011221875 7.0084898424e-40
464 1 -0.021853125 -0.00125 0.012403125 7.31254397065e-29
465 1 -0.021853125 -0.00125 0.013584375 2.16591248056e-73
466 1 -0.021853125 -0.00125 0.014765625 3.79199704966e-43
467 1 -0.021853125 -0.00125 0.015946875 2.25607097529e-39
468 1 -0.021853125 -0.00125 0.017128125 7.36486438086e-73
469 1 -0.021853125 -0.00125 0.018309375 2.74236719636e-150
470 1 -0.021853125 -0.00125 0.019490625 8.47396301752e-153
471 1 -0.021853125 -0.00125 0.020671875 0.0
472 1 -0.021853125 -0.00125 0.021853125 0.0
473 1 -0.021853125 -0.00125 0.023034375 0.0
474 1 -0.021853125 -0.00125 0.024215625 0.0
475 1 -0.021853125 -0.00125 0.025396875 0.0
476 1 -0.021853125 -0.00125 0.026578125 0.0
477 1 -0.021853125 -0.00125 0.027759375 0.0
478 1 -0.021853125 -0.00125 0.028940625 0.0
479 1 -0.020671875 -0.00125 -0.030121875 0.0
480 1 -0.020671875 -0.00125 -0.028940625 0.0
481 1 -0.020671875 -0.00125 -0.027759375 0.0
482 1 -0.020671875 -0.00125 -0.026578125 0.0
483 1 -0.020671875 -0.00125 -0.025396875 0.0
484 1 -0.020671875 -0.00125 -0.024215625 0.0
485 1 -0.020671875 -0.00125 -0.023034375 0.0
486 1 -0.020671875 -0.00125 -0.021853125 4.46964962672e-68
487 1 -0.020671875 -0.00125 -0.020671875 2.47408462125e-106
488 1 -0.020671875 -0.00125 -0.019490625 1.45120744604e-134
489 1 -0.020671875 -0.00125 -0.018309375 5.96539809361e-123
490 1 -0.020671875 -0.00125 -0.017128125 4.01228224087e-32
491 1 -0.020671875 -0.00125 -0.015946875 2.52012804798e-41
492 1 -0.020671875 -0.00125 -0.014765625 9.24249891657e-18
493 1 -0.020671875 -0.00125 -0.013584375 4.92751916874e-38
494 1 -0.020671875 -0.00125 -0.012403125 3.69455828852e-25
495 1 -0.020671875 -0.00125 -0.011221875 6.3743204692e-40
496 1 -0.020671875 -0.00125 -0.010040625 7.23314980707e-26
497 1 -0.020671875 -0.00125 -0.008859375 5.28871636052e-33
498 1 -0.020671875 -0.00125 -0.007678125 3.25447668347e-23
499 1 -0.020671875 -0.00125 -0.006496875 6.16269927565e-27
500 1 -0.020671875 -0.00125 -0.005315625 1.88350782106e-40
501 1 -0.020671875 -0.00125 -0.004134375 2.93897441364e-19
502 1 -0.020671875 -0.00125 -0.002953125 6.92523886911e-29
503 1 -0.020671875 -0.00125 -0.001771875 2.86880618779e-18
504 1 -0.020671875 -0.00125 -0.000590625 2.92673868822e-12
505 1 -0.020671875 -0.00125 0.000590625 4.48382482912e-13
506 1 -0.020671875 -0.00125 0.001771875 7.88874416321e-19
507 1 -0.020671875 -0.00125 0.002953125 1.72486681215e-23
508 1 -0.020671875 -0.00125 0.004134375 8.10399222093e-25
509 1 -0.020671875 -0.00125 0.005315625 1.06177398928e-14
510 1 -0.020671875 -0.00125 0.006496875 6.02777455837e-20
511 1 -0.020671875 -0.00125 0.007678125 7.43853866197e-18
512 1 -0.020671875 -0.00125 0.008859375 5.11958146935e-12
513 1 -0.020671875 -0.00125 0.010040625 2.18906509791e-33
514 1 -0.020671875 -0.00125 0.011221875 2.79532999796e-28
515 1 -0.020671875 -0.00125 0.012403125 2.93607772734e-32
516 1 -0.020671875 -0.00125 0.013584375 1.74097360132e-47
517 1 -0.020671875 -0.00125 0.014765625 9.13258696452e-35
518 1 -0.020671875 -0.00125 0.015946875 1.12672898302e-17
519 1 -0.020671875 -0.00125 0.017128125 1.62838112391e-30
520 1 -0.020671875 -0.00125 0.018309375 2.11437548099e-49
521 1 -0.020671875 -0.00125 0.019490625 7.90705647355e-64
522 1 -0.020671875 -0.00125 0.020671875 1.02726383654e-178
523 1 -0.020671875 -0.00125 0.021853125 0.0
524 1 -0.020671875 -0.00125 0.023034375 0.0
525 1 -0.020671875 -0.00125 0.024215625 0.0
526 1 -0.020671875 -0.00125 0.025396875 0.0
527 1 -0.020671875 -0.00125 0.026578125 0.0
528 1 -0.020671875 -0.00125 0.027759375 0.0
529 1 -0.020671875 -0.00125 0.028940625 0.0
530 1 -0.020671875 -0.00125 0.030121875 0.0
531 1 -0.019490625 -0.00125 -0.031303125 0.0
532 1 -0.019490625 -0.00125 -0.030121875 0.0
533 1 -0.019490625 -0.00125 -0.028940625 0.0
534 1 -0.019490625 -0.00125 -0.027759375 0.0
535 1 -0.019490625 -0.00125 -0.026578125 1.85598100749e-170
536 1 -0.019490625 -0.00125 -0.025396875 4.4000498381e-90
537 1 -0.019490625 -0.00125 -0.024215625 3.08187877578e-87
538 1 -0.019490625 -0.00125 -0.023034375 1.56119619884e-101
539 1 -0.019490625 -0.00125 -0.021853125 1.55087852755e-77
540 1 -0.019490625 -0.00125 -0.020671875 1.04446259883e-60
541 1 -0.019490625 -0.00125 -0.019490625 7.68184321856e-34
542 1 -0.019490625 -0.00125 -0.018309375 5.46937315895e-24
543 1 -0.019490625 -0.00125 -0.017128125 2.19398382854e-18
544 1 -0.019490625 -0.00125 -0.015946875 1.8699509762e-16
545 1 -0.019490625 -0.00125 -0.014765625 2.92933944768e-15
546 1 -0.019490625 -0.00125 -0.013584375 5.35753562477e-23
547 1 -0.019490625 -0.00125 -0.012403125 1.91372161639e-34
548 1 -0.019490625 -0.00125 -0.011221875 2.73849189594e-25
549 1 -0.019490625 -0.00125 -0.010040625 1.33589909972e-17
550 1 -0.019490625 -0.00125 -0.008859375 1.17411199963e-22
551 1 -0.019490625 -0.00125 -0.007678125 1.37312578706e-19
552 1 -0.019490625 -0.00125 -0.006496875 1.76500655809e-22
553 1 -0.019490625 -0.00125 -0.005315625 9.60275874128e-12
554 1 -0.019490625 -0.00125 -0.004134375 5.20671689508e-23
555 1 -0.019490625 -0.00125 -0.002953125 3.24249889064e-37
556 1 -0.019490625 -0.00125 -0.001771875 5.54267442552e-27
557 1 -0.019490625 -0.00125 -0.000590625 1.25415184307e-17
558 1 -0.019490625 -0.00125 0.000590625 3.01193101163e-14
559 1 -0.019490625 -0.00125 0.001771875 2.13333501592e-14
560 1 -0.019490625 -0.00125 0.002953125 5.03315417133e-21
561 1 -0.019490625 -0.00125 0.004134375 4.68125944958e-15
562 1 -0.019490625 -0.00125 0.005315625 1.81069326825e-09
563 1 -0.019490625 -0.00125 0.006496875 4.38981419208e-09
564 1 -0.019490625 -0.00125 0.007678125 1.05784727657e-07
565 1 -0.019490625 -0.00125 0.008859375 2.85944410773e-09
566 1 -0.019490625 -0.00125 0.010040625 1.85616139455e-13
567 1 -0.019490625 -0.00125 0.011221875 1.06355116777e-14
568 1 -0.019490625 -0.00125 0.012403125 9.90419554568e-13
569 1 -0.019490625 -0.00125 0.013584375 2.14272345206e-19
570 1 -0.019490625 -0.00125 0.014765625 1.24032731599e-17
571 1 -0.019490625 -0.00125 0.015946875 1.96473479575e-15
572 1 -0.019490625 -0.00125 0.017128125 1.63386221479e-17
573 1 -0.019490625 -0.00125 0.018309375 1.739060134e-21
574 1 -0.019490625 -0.00125 0.019490625 4.37828268438e-42
575 1 -0.019490625 -0.00125 0.020671875 6.29001613719e-39
576 1 -0.019490625 -0.00125 0.021853125 4.93253228595e-54
577 1 -0.019490625 -0.00125 0.023034375 1.08214924621e-102
578 1 -0.019490625 -0.00125 0.024215625 1.88818790264e-156
579 1 -0.019490625 -0.00125 0.025396875 0.0
580 1 -0.019490625 -0.00125 0.026578125 0.0
581 1 -0.019490625 -0.00125 0.027759375 3.38689256627e-213
582 1 -0.019490625 -0.00125 0.028940625 0.0
583 1 -0.019490625 -0.00125 0.030121875 0.0
584 1 -0.019490625 -0.00125 0.031303125 0.0
585 1 -0.018309375 -0.00125 -0.032484375 0.0
586 1 -0.018309375 -0.00125 -0.031303125 6.08620531923e-291
587 1 -0.018309375 -0.00125 -0.030121875 0.0
588 1 -0.018309375 -0.00125 -0.028940625 0.0
589 1 -0.018309375 -0.00125 -0.027759375 0.0
590 1 -0.018309375 -0.00125 -0.026578125 7.20973894043e-99
591 1 -0.018309375 -0.00125 -0.025396875 6.01565175971e-93
592 1 -0.018309375 -0.00125 -0.024215625 6.55784560561e-61
593 1 -0.018309375 -0.00125 -0.023034375 3.38013856574e-48
594 1 -0.018309375 -0.00125 -0.021853125 7.32955478616e-40