ITEM: TIMESTEP
0
ITEM: NUMBER OF ATOMS
3080
ITEM: BOX BOUNDS ss ss ss
-3.7007399999999996e-02 3.7007399999999996e-02
-2.0002499999999999e-03 2.5000000000000004e-07
-3.7007399999999996e-02 3.7007399999999996e-02
ITEM: ATOMS id type x y z c_1
0 1 -0.037209375 -0.00125 -0.000590625 0.0046807726464
1 1 -0.036028125 -0.00125 -0.007678125 1.63507925333e-59
2 1 -0.036028125 -0.00125 -0.006496875 4.61039923587e-92
3 1 -0.036028125 -0.00125 -0.005315625 1.32958660048e-189
4 1 -0.036028125 -0.00125 -0.004134375 4.55319176748e-103
5 1 -0.036028125 -0.00125 -0.002953125 8.45389208058e-22
6 1 -0.036028125 -0.00125 -0.001771875 5.022374896e-13
7 1 -0.036028125 -0.00125 -0.000590625 3.01551063108e-10
8 1 -0.036028125 -0.00125 0.000590625 2.73562374294e-07
9 1 -0.036028125 -0.00125 0.001771875 0.000268460650738
10 1 -0.036028125 -0.00125 0.002953125 1.80216248646e-15
11 1 -0.036028125 -0.00125 0.004134375 1.86971667835e-41
12 1 -0.036028125 -0.00125 0.005315625 8.96785115466e-72
13 1 -0.036028125 -0.00125 0.006496875 3.1027388283e-36
14 1 -0.036028125 -0.00125 0.007678125 3.86038393847e-18
15 1 -0.034846875 -0.00125 -0.011221875 4.97733366132e-16
16 1 -0.034846875 -0.00125 -0.010040625 3.4078303834e-32
17 1 -0.034846875 -0.00125 -0.008859375 7.87920848268e-29
18 1 -0.034846875 -0.00125 -0.007678125 1.68613120835e-84
19 1 -0.034846875 -0.00125 -0.006496875 6.99528301719e-196
20 1 -0.034846875 -0.00125 -0.005315625 1.80111198847e-245
21 1 -0.034846875 -0.00125 -0.004134375 2.2371089228e-92
22 1 -0.034846875 -0.00125 -0.002953125 1.69063731299e-31
23 1 -0.034846875 -0.00125 -0.001771875 3.72309562923e-17
24 1 -0.034846875 -0.00125 -0.000590625 2.18793703311e-14
25 1 -0.034846875 -0.00125 0.000590625 1.85234280026e-09
26 1 -0.034846875 -0.00125 0.001771875 8.75660335199e-10
27 1 -0.034846875 -0.00125 0.002953125 2.97312027637e-17
28 1 -0.034846875 -0.00125 0.004134375 2.25131608533e-62
29 1 -0.034846875 -0.00125 0.005315625 6.78454098203e-108
30 1 -0.034846875 -0.00125 0.006496875 3.2034004723e-85
31 1 -0.034846875 -0.00125 0.007678125 9.5506011621e-17
32 1 -0.034846875 -0.00125 0.008859375 0.000336874091204
33 1 -0.034846875 -0.00125 0.010040625 2.30295748344e-08
34 1 -0.034846875 -0.00125 0.011221875 3.67568439177e-05
35 1 -0.033665625 -0.00125 -0.013584375 4.25352852974e-26
36 1 -0.033665625 -0.00125 -0.012403125 2.12129481442e-07
37 1 -0.033665625 -0.00125 -0.011221875 1.70691187499e-14
38 1 -0.033665625 -0.00125 -0.010040625 7.92830405196e-21
39 1 -0.033665625 -0.00125 -0.008859375 2.38640918247e-26
40 1 -0.033665625 -0.00125 -0.007678125 8.38265942205e-80
41 1 -0.033665625 -0.00125 -0.006496875 6.46863563716e-157
42 1 -0.033665625 -0.00125 -0.005315625 1.638642486e-266
43 1 -0.033665625 -0.00125 -0.004134375 2.79917922042e-76
44 1 -0.033665625 -0.00125 -0.002953125 2.10215506724e-24
45 1 -0.033665625 -0.00125 -0.001771875 9.00562747968e-15
46 1 -0.033665625 -0.00125 -0.000590625 3.10218574102e-12
47 1 -0.033665625 -0.00125 0.000590625 2.23587520536e-09
48 1 -0.033665625 -0.00125 0.001771875 2.79706157502e-08
49 1 -0.033665625 -0.00125 0.002953125 2.00912091417e-13
50 1 -0.033665625 -0.00125 0.004134375 1.74229417242e-41
51 1 -0.033665625 -0.00125 0.005315625 1.5703662294e-45
52 1 -0.033665625 -0.00125 0.006496875 2.70114711238e-42
53 1 -0.033665625 -0.00125 0.007678125 8.7533844925e-11
54 1 -0.033665625 -0.00125 0.008859375 2.44143881377e-06
55 1 -0.033665625 -0.00125 0.010040625 3.76403054532e-07
56 1 -0.033665625 -0.00125 0.011221875 0.000447782050576
57 1 -0.033665625 -0.00125 0.012403125 0.0491239867707
58 1 -0.033665625 -0.00125 0.013584375 1.2798560429e-07
59 1 -0.032484375 -0.00125 -0.018309375 2.33500216883e-24
60 1 -0.032484375 -0.00125 -0.017128125 7.54554572585e-26
61 1 -0.032484375 -0.00125 -0.015946875 2.76642521366e-11
62 1 -0.032484375 -0.00125 -0.014765625 3.93352091571e-18
63 1 -0.032484375 -0.00125 -0.013584375 1.04451636938e-21
64 1 -0.032484375 -0.00125 -0.012403125 1.61703180579e-13
65 1 -0.032484375 -0.00125 -0.011221875 5.70290029866e-17
66 1 -0.032484375 -0.00125 -0.010040625 2.49876686139e-25
67 1 -0.032484375 -0.00125 -0.008859375 2.94070921953e-26
68 1 -0.032484375 -0.00125 -0.007678125 6.40907280525e-29
69 1 -0.032484375 -0.00125 -0.006496875 2.83665229858e-110
70 1 -0.032484375 -0.00125 -0.005315625 4.77411234221e-124
71 1 -0.032484375 -0.00125 -0.004134375 3.38560108809e-62
72 1 -0.032484375 -0.00125 -0.002953125 1.54708363077e-25
73 1 -0.032484375 -0.00125 -0.001771875 1.25452062773e-12
74 1 -0.032484375 -0.00125 -0.000590625 5.26257194123e-15
75 1 -0.032484375 -0.00125 0.000590625 1.15874841358e-10
76 1 -0.032484375 -0.00125 0.001771875 9.77931238239e-10
77 1 -0.032484375 -0.00125 0.002953125 6.40728654455e-11
78 1 -0.032484375 -0.00125 0.004134375 1.12350705407e-30
79 1 -0.032484375 -0.00125 0.005315625 3.91964965684e-33
80 1 -0.032484375 -0.00125 0.006496875 2.69740172886e-32
81 1 -0.032484375 -0.00125 0.007678125 1.8853168763e-13
82 1 -0.032484375 -0.00125 0.008859375 3.88771667358e-08
83 1 -0.032484375 -0.00125 0.010040625 2.19276019449e-07
84 1 -0.032484375 -0.00125 0.011221875 0.00217339793569
85 1 -0.032484375 -0.00125 0.012403125 0.00081370190282
86 1 -0.032484375 -0.00125 0.013584375 6.23348390813e-18
87 1 -0.032484375 -0.00125 0.014765625 1.73706398884e-07
88 1 -0.032484375 -0.00125 0.015946875 3.50700621848e-06
89 1 -0.032484375 -0.00125 0.017128125 9.8305974012e-05
90 1 -0.032484375 -0.00125 0.018309375 1.69084128125e-05
91 1 -0.031303125 -0.00125 -0.019490625 4.01935854885e-64
92 1 -0.031303125 -0.00125 -0.018309375 1.22117453469e-34
93 1 -0.031303125 -0.00125 -0.017128125 1.7902137751e-20
94 1 -0.031303125 -0.00125 -0.015946875 7.19298460941e-17
95 1 -0.031303125 -0.00125 -0.014765625 4.21863776576e-12
96 1 -0.031303125 -0.00125 -0.013584375 2.57732115617e-18
97 1 -0.031303125 -0.00125 -0.012403125 2.99477011208e-19
98 1 -0.031303125 -0.00125 -0.011221875 2.08879717735e-19
99 1 -0.031303125 -0.00125 -0.010040625 1.59179116869e-23
100 1 -0.031303125 -0.00125 -0.008859375 6.00459262117e-31
101 1 -0.031303125 -0.00125 -0.007678125 3.73906077603e-30
102 1 -0.031303125 -0.00125 -0.006496875 1.91749605515e-37
103 1 -0.031303125 -0.00125 -0.005315625 1.43051967503e-41
104 1 -0.031303125 -0.00125 -0.004134375 2.88589991072e-32
105 1 -0.031303125 -0.00125 -0.002953125 9.54094600322e-21
106 1 -0.031303125 -0.00125 -0.001771875 1.61335787971e-13
107 1 -0.031303125 -0.00125 -0.000590625 2.86783318131e-13
108 1 -0.031303125 -0.00125 0.000590625 1.51037745564e-12
109 1 -0.031303125 -0.00125 0.001771875 1.22935401231e-12
110 1 -0.031303125 -0.00125 0.002953125 2.7676421444e-13
111 1 -0.031303125 -0.00125 0.004134375 3.77679677808e-17
112 1 -0.031303125 -0.00125 0.005315625 3.8241057844e-17
113 1 -0.031303125 -0.00125 0.006496875 1.85598719656e-23
114 1 -0.031303125 -0.00125 0.007678125 1.38740373497e-14
115 1 -0.031303125 -0.00125 0.008859375 2.5442111214e-13
116 1 -0.031303125 -0.00125 0.010040625 1.30060653033e-11
117 1 -0.031303125 -0.00125 0.011221875 9.99291077018e-08
118 1 -0.031303125 -0.00125 0.012403125 5.14651844643e-07
119 1 -0.031303125 -0.00125 0.013584375 3.76168519021e-13
120 1 -0.031303125 -0.00125 0.014765625 4.22962375629e-11
121 1 -0.031303125 -0.00125 0.015946875 4.14015091873e-07
122 1 -0.031303125 -0.00125 0.017128125 2.79412456563e-07
123 1 -0.031303125 -0.00125 0.018309375 5.34776206991e-07
124 1 -0.031303125 -0.00125 0.019490625 2.98584482233e-10
125 1 -0.030121875 -0.00125 -0.020671875 1.10048093442e-151
126 1 -0.030121875 -0.00125 -0.019490625 1.21485153693e-65
127 1 -0.030121875 -0.00125 -0.018309375 3.23914439308e-30
128 1 -0.030121875 -0.00125 -0.017128125 6.09795426413e-13
129 1 -0.030121875 -0.00125 -0.015946875 2.9046558088e-17
130 1 -0.030121875 -0.00125 -0.014765625 6.98086706605e-11
131 1 -0.030121875 -0.00125 -0.013584375 5.12500557583e-11
132 1 -0.030121875 -0.00125 -0.012403125 1.36240973008e-11
133 1 -0.030121875 -0.00125 -0.011221875 4.7458033711e-15
134 1 -0.030121875 -0.00125 -0.010040625 1.26798883971e-29
135 1 -0.030121875 -0.00125 -0.008859375 1.25912698864e-32
136 1 -0.030121875 -0.00125 -0.007678125 4.53687953492e-29
137 1 -0.030121875 -0.00125 -0.006496875 1.55654451781e-32
138 1 -0.030121875 -0.00125 -0.005315625 9.9511575451e-18
139 1 -0.030121875 -0.00125 -0.004134375 1.74454013567e-22
140 1 -0.030121875 -0.00125 -0.002953125 1.68205166027e-15
141 1 -0.030121875 -0.00125 -0.001771875 3.12570729197e-13
142 1 -0.030121875 -0.00125 -0.000590625 5.66243424117e-18
143 1 -0.030121875 -0.00125 0.000590625 7.81734521994e-16
144 1 -0.030121875 -0.00125 0.001771875 1.49993286986e-09
145 1 -0.030121875 -0.00125 0.002953125 2.80445356481e-14
146 1 -0.030121875 -0.00125 0.004134375 3.52229912944e-17
147 1 -0.030121875 -0.00125 0.005315625 7.1814413396e-12
148 1 -0.030121875 -0.00125 0.006496875 9.07646812387e-21
149 1 -0.030121875 -0.00125 0.007678125 1.68930554695e-14
150 1 -0.030121875 -0.00125 0.008859375 2.10743645594e-19
151 1 -0.030121875 -0.00125 0.010040625 2.95943808718e-11
152 1 -0.030121875 -0.00125 0.011221875 1.21079645615e-10
153 1 -0.030121875 -0.00125 0.012403125 4.29925635671e-09
154 1 -0.030121875 -0.00125 0.013584375 1.30854472289e-11
155 1 -0.030121875 -0.00125 0.014765625 8.12433934546e-13
156 1 -0.030121875 -0.00125 0.015946875 1.60267756053e-11
157 1 -0.030121875 -0.00125 0.017128125 1.19787310915e-07
158 1 -0.030121875 -0.00125 0.018309375 1.05670659195e-08
159 1 -0.030121875 -0.00125 0.019490625 9.66379990956e-10
160 1 -0.030121875 -0.00125 0.020671875 6.89254455489e-06
161 1 -0.028940625 -0.00125 -0.021853125 3.50511038644e-55
162 1 -0.028940625 -0.00125 -0.020671875 3.41373323853e-67
163 1 -0.028940625 -0.00125 -0.019490625 1.37772837356e-35
164 1 -0.028940625 -0.00125 -0.018309375 4.93317110558e-27
165 1 -0.028940625 -0.00125 -0.017128125 5.17132471461e-15
166 1 -0.028940625 -0.00125 -0.015946875 1.56363359453e-11
167 1 -0.028940625 -0.00125 -0.014765625 1.1425997218e-10
168 1 -0.028940625 -0.00125 -0.013584375 3.17879094032e-12
169 1 -0.028940625 -0.00125 -0.012403125 1.93768115073e-14
170 1 -0.028940625 -0.00125 -0.011221875 2.2377004379e-17
171 1 -0.028940625 -0.00125 -0.010040625 3.04131478192e-24
172 1 -0.028940625 -0.00125 -0.008859375 1.95992340723e-23
173 1 -0.028940625 -0.00125 -0.007678125 7.46117595579e-18
174 1 -0.028940625 -0.00125 -0.006496875 1.34401545285e-11
175 1 -0.028940625 -0.00125 -0.005315625 6.89973711187e-13
176 1 -0.028940625 -0.00125 -0.004134375 7.93410200303e-13
177 1 -0.028940625 -0.00125 -0.002953125 1.87709373978e-13
178 1 -0.028940625 -0.00125 -0.001771875 8.58032185886e-15
179 1 -0.028940625 -0.00125 -0.000590625 1.38475849158e-10
180 1 -0.028940625 -0.00125 0.000590625 1.10978246818e-16
181 1 -0.028940625 -0.00125 0.001771875 1.55213722737e-15
182 1 -0.028940625 -0.00125 0.002953125 4.19404856444e-12
183 1 -0.028940625 -0.00125 0.004134375 3.84869275536e-13
184 1 -0.028940625 -0.00125 0.005315625 1.33057952552e-13
185 1 -0.028940625 -0.00125 0.006496875 6.21313382048e-17
186 1 -0.028940625 -0.00125 0.007678125 2.23903973918e-22
187 1 -0.028940625 -0.00125 0.008859375 1.4195233907e-24
188 1 -0.028940625 -0.00125 0.010040625 4.20943127398e-22
189 1 -0.028940625 -0.00125 0.011221875 1.02334535937e-13
190 1 -0.028940625 -0.00125 0.012403125 7.01656380609e-17
191 1 -0.028940625 -0.00125 0.013584375 1.7955736728e-27
192 1 -0.028940625 -0.00125 0.014765625 1.55881732996e-20
193 1 -0.028940625 -0.00125 0.015946875 1.36697233013e-09
194 1 -0.028940625 -0.00125 0.017128125 1.02420576373e-08
195 1 -0.028940625 -0.00125 0.018309375 1.22633169843e-08
196 1 -0.028940625 -0.00125 0.019490625 1.29906555816e-06
197 1 -0.028940625 -0.00125 0.020671875 0.000311947603246
198 1 -0.028940625 -0.00125 0.021853125 0.00415726535609
199 1 -0.027759375 -0.00125 -0.024215625 5.18473869151e-246
200 1 -0.027759375 -0.00125 -0.023034375 8.10852857911e-171
201 1 -0.027759375 -0.00125 -0.021853125 1.44447593645e-31
202 1 -0.027759375 -0.00125 -0.020671875 1.4054238458e-62
203 1 -0.027759375 -0.00125 -0.019490625 2.99855016732e-27
204 1 -0.027759375 -0.00125 -0.018309375 3.83253233463e-17
205 1 -0.027759375 -0.00125 -0.017128125 2.38251350217e-08
206 1 -0.027759375 -0.00125 -0.015946875 9.77068368185e-06
207 1 -0.027759375 -0.00125 -0.014765625 4.09818516554e-07
208 1 -0.027759375 -0.00125 -0.013584375 2.02831827553e-08
209 1 -0.027759375 -0.00125 -0.012403125 2.30803731087e-11
210 1 -0.027759375 -0.00125 -0.011221875 4.98894673572e-14
211 1 -0.027759375 -0.00125 -0.010040625 3.42653969393e-18
212 1 -0.027759375 -0.00125 -0.008859375 4.07227057333e-21
213 1 -0.027759375 -0.00125 -0.007678125 7.08313256562e-15
214 1 -0.027759375 -0.00125 -0.006496875 8.54775777621e-10
215 1 -0.027759375 -0.00125 -0.005315625 2.70733254172e-09
216 1 -0.027759375 -0.00125 -0.004134375 3.59360312569e-08
217 1 -0.027759375 -0.00125 -0.002953125 1.3184599063e-06
218 1 -0.027759375 -0.00125 -0.001771875 2.66409148367e-08
219 1 -0.027759375 -0.00125 -0.000590625 0.000149449366221
220 1 -0.027759375 -0.00125 0.000590625 1.09015030717e-06
221 1 -0.027759375 -0.00125 0.001771875 6.34221714875e-08
222 1 -0.027759375 -0.00125 0.002953125 7.80942240628e-07
223 1 -0.027759375 -0.00125 0.004134375 3.3683414194e-08
224 1 -0.027759375 -0.00125 0.005315625 5.27513771401e-08
225 1 -0.027759375 -0.00125 0.006496875 6.57271651757e-13
226 1 -0.027759375 -0.00125 0.007678125 2.08598201673e-11
227 1 -0.027759375 -0.00125 0.008859375 2.33469481587e-07
228 1 -0.027759375 -0.00125 0.010040625 1.11178507172e-09
229 1 -0.027759375 -0.00125 0.011221875 1.71177228364e-20
230 1 -0.027759375 -0.00125 0.012403125 2.84314774959e-18
231 1 -0.027759375 -0.00125 0.013584375 1.56008458917e-33
232 1 -0.027759375 -0.00125 0.014765625 1.24222503636e-27
233 1 -0.027759375 -0.00125 0.015946875 6.35503649065e-12
234 1 -0.027759375 -0.00125 0.017128125 6.29512244403e-11
235 1 -0.027759375 -0.00125 0.018309375 2.51540026405e-07
236 1 -0.027759375 -0.00125 0.019490625 2.65427164057e-05
237 1 -0.027759375 -0.00125 0.020671875 0.000153216413351
238 1 -0.027759375 -0.00125 0.021853125 0.0208352411256
239 1 -0.027759375 -0.00125 0.023034375 7.36490184623e-05
240 1 -0.027759375 -0.00125 0.024215625 8.83516683681e-28
241 1 -0.026578125 -0.00125 -0.026578125 0.0
242 1 -0.026578125 -0.00125 -0.025396875 9.77957300833e-297
243 1 -0.026578125 -0.00125 -0.024215625 1.50483849287e-251
244 1 -0.026578125 -0.00125 -0.023034375 1.10143720129e-181
245 1 -0.026578125 -0.00125 -0.021853125 3.58674163309e-84
246 1 -0.026578125 -0.00125 -0.020671875 5.75089574616e-32
247 1 -0.026578125 -0.00125 -0.019490625 4.08875336684e-12
248 1 -0.026578125 -0.00125 -0.018309375 2.24960521098e-08
249 1 -0.026578125 -0.00125 -0.017128125 1.26685516196e-06
250 1 -0.026578125 -0.00125 -0.015946875 1.57245565178e-05
251 1 -0.026578125 -0.00125 -0.014765625 1.48780354853e-07
252 1 -0.026578125 -0.00125 -0.013584375 4.48585897564e-08
253 1 -0.026578125 -0.00125 -0.012403125 4.06329324383e-12
254 1 -0.026578125 -0.00125 -0.011221875 1.34111811832e-10
255 1 -0.026578125 -0.00125 -0.010040625 9.61149306296e-17
256 1 -0.026578125 -0.00125 -0.008859375 1.32842235618e-13
257 1 -0.026578125 -0.00125 -0.007678125 3.54143769196e-09
258 1 -0.026578125 -0.00125 -0.006496875 6.17037459179e-07
259 1 -0.026578125 -0.00125 -0.005315625 0.000355053856887
260 1 -0.026578125 -0.00125 -0.004134375 0.00247777648915
261 1 -0.026578125 -0.00125 -0.002953125 0.0013391810156
262 1 -0.026578125 -0.00125 -0.001771875 0.00167394628018
263 1 -0.026578125 -0.00125 -0.000590625 0.00292318380789
264 1 -0.026578125 -0.00125 0.000590625 0.00217423046707
265 1 -0.026578125 -0.00125 0.001771875 0.00212251901965
266 1 -0.026578125 -0.00125 0.002953125 0.00370046090464
267 1 -0.026578125 -0.00125 0.004134375 0.000293948768998
268 1 -0.026578125 -0.00125 0.005315625 0.000356788232209
269 1 -0.026578125 -0.00125 0.006496875 4.32910370344e-07
270 1 -0.026578125 -0.00125 0.007678125 6.29251216878e-06
271 1 -0.026578125 -0.00125 0.008859375 1.36534142251e-06
272 1 -0.026578125 -0.00125 0.010040625 2.64855581913e-07
273 1 -0.026578125 -0.00125 0.011221875 2.65606218661e-11
274 1 -0.026578125 -0.00125 0.012403125 8.10851794902e-15
275 1 -0.026578125 -0.00125 0.013584375 2.47905409964e-22
276 1 -0.026578125 -0.00125 0.014765625 6.25428881618e-23
277 1 -0.026578125 -0.00125 0.015946875 7.22996437462e-17
278 1 -0.026578125 -0.00125 0.017128125 1.09888488919e-10
279 1 -0.026578125 -0.00125 0.018309375 2.70904892682e-05
280 1 -0.026578125 -0.00125 0.019490625 0.000454050341528
281 1 -0.026578125 -0.00125 0.020671875 0.00302739466073
282 1 -0.026578125 -0.00125 0.021853125 0.000133481663674
283 1 -0.026578125 -0.00125 0.023034375 3.0866245457e-11
284 1 -0.026578125 -0.00125 0.024215625 4.15830629066e-16
285 1 -0.026578125 -0.00125 0.025396875 2.02418715697e-23
286 1 -0.026578125 -0.00125 0.026578125 8.90548950505e-21
287 1 -0.025396875 -0.00125 -0.026578125 0.0
288 1 -0.025396875 -0.00125 -0.025396875 0.0
289 1 -0.025396875 -0.00125 -0.024215625 5.83511910069e-240
290 1 -0.025396875 -0.00125 -0.023034375 2.44054138753e-202
291 1 -0.025396875 -0.00125 -0.021853125 3.1822225991e-57
292 1 -0.025396875 -0.00125 -0.020671875 6.32839197098e-16
293 1 -0.025396875 -0.00125 -0.019490625 3.38054423847e-08
294 1 -0.025396875 -0.00125 -0.018309375 0.000331935308926
295 1 -0.025396875 -0.00125 -0.017128125 0.00168101978347
296 1 -0.025396875 -0.00125 -0.015946875 0.00294025015129
297 1 -0.025396875 -0.00125 -0.014765625 0.00148272748593
298 1 -0.025396875 -0.00125 -0.013584375 4.76286730101e-05
299 1 -0.025396875 -0.00125 -0.012403125 6.28776561312e-09
300 1 -0.025396875 -0.00125 -0.011221875 2.63364562441e-07
301 1 -0.025396875 -0.00125 -0.010040625 1.46071962895e-08
302 1 -0.025396875 -0.00125 -0.008859375 7.78980723531e-09
303 1 -0.025396875 -0.00125 -0.007678125 1.02632163929e-08
304 1 -0.025396875 -0.00125 -0.006496875 1.23311655593e-05
305 1 -0.025396875 -0.00125 -0.005315625 0.000371118758632
306 1 -0.025396875 -0.00125 -0.004134375 0.0047831134279
307 1 -0.025396875 -0.00125 -0.002953125 0.00309251053878
308 1 -0.025396875 -0.00125 -0.001771875 0.00238519985335
309 1 -0.025396875 -0.00125 -0.000590625 0.00243567977556
310 1 -0.025396875 -0.00125 0.000590625 0.00429091651109
311 1 -0.025396875 -0.00125 0.001771875 0.0061683137068
312 1 -0.025396875 -0.00125 0.002953125 0.00212842985291
313 1 -0.025396875 -0.00125 0.004134375 0.00849949998855
314 1 -0.025396875 -0.00125 0.005315625 0.00578403081815
315 1 -0.025396875 -0.00125 0.006496875 0.00204287061555
316 1 -0.025396875 -0.00125 0.007678125 0.00229496442038
317 1 -0.025396875 -0.00125 0.008859375 0.000289468119826
318 1 -0.025396875 -0.00125 0.010040625 0.00011040901663
319 1 -0.025396875 -0.00125 0.011221875 1.25361437548e-07
320 1 -0.025396875 -0.00125 0.012403125 7.48095534549e-13
321 1 -0.025396875 -0.00125 0.013584375 8.99512063377e-15
322 1 -0.025396875 -0.00125 0.014765625 2.79970115246e-27
323 1 -0.025396875 -0.00125 0.015946875 7.54254004159e-13
324 1 -0.025396875 -0.00125 0.017128125 1.3085967637e-09
325 1 -0.025396875 -0.00125 0.018309375 3.59897348142e-05
326 1 -0.025396875 -0.00125 0.019490625 0.00220976865423
327 1 -0.025396875 -0.00125 0.020671875 0.00349739052614
328 1 -0.025396875 -0.00125 0.021853125 0.00100246067891
329 1 -0.025396875 -0.00125 0.023034375 1.37451093687e-07
330 1 -0.025396875 -0.00125 0.024215625 5.94859389387e-11
331 1 -0.025396875 -0.00125 0.025396875 1.62289746517e-14
332 1 -0.025396875 -0.00125 0.026578125 4.01342218989e-46
333 1 -0.024215625 -0.00125 -0.027759375 7.13385067094e-84
334 1 -0.024215625 -0.00125 -0.026578125 9.24872550707e-177
335 1 -0.024215625 -0.00125 -0.025396875 2.84211876576e-211
336 1 -0.024215625 -0.00125 -0.024215625 2.71791329868e-114
337 1 -0.024215625 -0.00125 -0.023034375 7.95912229254e-70
338 1 -0.024215625 -0.00125 -0.021853125 1.00487909293e-31
339 1 -0.024215625 -0.00125 -0.020671875 4.01771471357e-14
340 1 -0.024215625 -0.00125 -0.019490625 4.01091487001e-06
341 1 -0.024215625 -0.00125 -0.018309375 0.000110005775512
342 1 -0.024215625 -0.00125 -0.017128125 0.000837537406645
343 1 -0.024215625 -0.00125 -0.015946875 0.00663734310492
344 1 -0.024215625 -0.00125 -0.014765625 0.00183766856055
345 1 -0.024215625 -0.00125 -0.013584375 2.83278834477e-05
346 1 -0.024215625 -0.00125 -0.012403125 2.10317315295e-08
347 1 -0.024215625 -0.00125 -0.011221875 3.05955952355e-08
348 1 -0.024215625 -0.00125 -0.010040625 2.5957515388e-08
349 1 -0.024215625 -0.00125 -0.008859375 1.31265434906e-06
350 1 -0.024215625 -0.00125 -0.007678125 5.29813754007e-08
351 1 -0.024215625 -0.00125 -0.006496875 5.34064485556e-06
352 1 -0.024215625 -0.00125 -0.005315625 0.000726400445157
353 1 -0.024215625 -0.00125 -0.004134375 0.00106935340467
354 1 -0.024215625 -0.00125 -0.002953125 0.00160092810622
355 1 -0.024215625 -0.00125 -0.001771875 0.00248813841001
356 1 -0.024215625 -0.00125 -0.000590625 0.0030002106358
357 1 -0.024215625 -0.00125 0.000590625 0.0222905669986
358 1 -0.024215625 -0.00125 0.001771875 0.0112558931194
359 1 -0.024215625 -0.00125 0.002953125 0.00737756509834
360 1 -0.024215625 -0.00125 0.004134375 0.00779842263882
361 1 -0.024215625 -0.00125 0.005315625 0.00419967523954
362 1 -0.024215625 -0.00125 0.006496875 0.000847652420259
363 1 -0.024215625 -0.00125 0.007678125 0.000602824373885
364 1 -0.024215625 -0.00125 0.008859375 0.00104980635944
365 1 -0.024215625 -0.00125 0.010040625 0.000717261774251
366 1 -0.024215625 -0.00125 0.011221875 1.29040560177e-05
367 1 -0.024215625 -0.00125 0.012403125 6.18386677454e-07
368 1 -0.024215625 -0.00125 0.013584375 2.06164345907e-08
369 1 -0.024215625 -0.00125 0.014765625 3.99841580525e-08
370 1 -0.024215625 -0.00125 0.015946875 1.3525790724e-10
371 1 -0.024215625 -0.00125 0.017128125 1.38211232994e-06
372 1 -0.024215625 -0.00125 0.018309375 0.000278071847714
373 1 -0.024215625 -0.00125 0.019490625 0.00114299908606
374 1 -0.024215625 -0.00125 0.020671875 0.00332662399374
375 1 -0.024215625 -0.00125 0.021853125 0.00235658331883
376 1 -0.024215625 -0.00125 0.023034375 7.0748212548e-05
377 1 -0.024215625 -0.00125 0.024215625 1.7167438761e-09
378 1 -0.024215625 -0.00125 0.025396875 2.0088666175e-15
379 1 -0.024215625 -0.00125 0.026578125 8.84692599968e-18
380 1 -0.024215625 -0.00125 0.027759375 2.23554635395e-19
381 1 -0.023034375 -0.00125 -0.027759375 4.98595555172e-119
382 1 -0.023034375 -0.00125 -0.026578125 2.9625082695e-100
383 1 -0.023034375 -0.00125 -0.025396875 6.47762299467e-61
384 1 -0.023034375 -0.00125 -0.024215625 1.13281945306e-40
385 1 -0.023034375 -0.00125 -0.023034375 1.65963599918e-20
386 1 -0.023034375 -0.00125 -0.021853125 3.69118723659e-12
387 1 -0.023034375 -0.00125 -0.020671875 1.01617029555e-06
388 1 -0.023034375 -0.00125 -0.019490625 0.000363169389621
389 1 -0.023034375 -0.00125 -0.018309375 0.00130611772527
390 1 -0.023034375 -0.00125 -0.017128125 0.00209184563553
391 1 -0.023034375 -0.00125 -0.015946875 0.00850424249734
392 1 -0.023034375 -0.00125 -0.014765625 0.00366166797236
393 1 -0.023034375 -0.00125 -0.013584375 8.68263073843e-05
394 1 -0.023034375 -0.00125 -0.012403125 2.34899995323e-07
395 1 -0.023034375 -0.00125 -0.011221875 1.08540866005e-07
396 1 -0.023034375 -0.00125 -0.010040625 1.65163137713e-08
397 1 -0.023034375 -0.00125 -0.008859375 4.19384811113e-07
398 1 -0.023034375 -0.00125 -0.007678125 2.60370066939e-06
399 1 -0.023034375 -0.00125 -0.006496875 3.92934928984e-05
400 1 -0.023034375 -0.00125 -0.005315625 0.000298434403032
401 1 -0.023034375 -0.00125 -0.004134375 0.000215920242312
402 1 -0.023034375 -0.00125 -0.002953125 0.000955426266884
403 1 -0.023034375 -0.00125 -0.001771875 0.00980014664644
404 1 -0.023034375 -0.00125 -0.000590625 0.0169836273364
405 1 -0.023034375 -0.00125 0.000590625 0.0334986684007
406 1 -0.023034375 -0.00125 0.001771875 0.0248756445421
407 1 -0.023034375 -0.00125 0.002953125 0.0254558038047
408 1 -0.023034375 -0.00125 0.004134375 0.0149413821166
409 1 -0.023034375 -0.00125 0.005315625 0.00359141879792
410 1 -0.023034375 -0.00125 0.006496875 0.0128415439418
411 1 -0.023034375 -0.00125 0.007678125 0.0047454481531
412 1 -0.023034375 -0.00125 0.008859375 0.00100883528935
413 1 -0.023034375 -0.00125 0.010040625 7.44448989717e-05
414 1 -0.023034375 -0.00125 0.011221875 7.17151486206e-07
415 1 -0.023034375 -0.00125 0.012403125 1.52245654296e-06
416 1 -0.023034375 -0.00125 0.013584375 2.75570409955e-08
417 1 -0.023034375 -0.00125 0.014765625 1.70100322314e-09
418 1 -0.023034375 -0.00125 0.015946875 3.8341989464e-07
419 1 -0.023034375 -0.00125 0.017128125 2.74768994903e-06
420 1 -0.023034375 -0.00125 0.018309375 0.000724636206935
421 1 -0.023034375 -0.00125 0.019490625 0.00228791880438
422 1 -0.023034375 -0.00125 0.020671875 0.013681039527
423 1 -0.023034375 -0.00125 0.021853125 0.00348271398047
424 1 -0.023034375 -0.00125 0.023034375 0.00132340195741
425 1 -0.023034375 -0.00125 0.024215625 7.24316177416e-08
426 1 -0.023034375 -0.00125 0.025396875 1.90233386779e-09
427 1 -0.023034375 -0.00125 0.026578125 7.90412147134e-13
428 1 -0.023034375 -0.00125 0.027759375 1.72183581729e-08
429 1 -0.021853125 -0.00125 -0.028940625 1.33816455544e-44
430 1 -0.021853125 -0.00125 -0.027759375 1.64580912406e-48
431 1 -0.021853125 -0.00125 -0.026578125 4.54111839636e-72
432 1 -0.021853125 -0.00125 -0.025396875 1.63723168549e-31
433 1 -0.021853125 -0.00125 -0.024215625 6.10614781948e-16
434 1 -0.021853125 -0.00125 -0.023034375 3.80578107258e-13
435 1 -0.021853125 -0.00125 -0.021853125 7.51800350056e-08
436 1 -0.021853125 -0.00125 -0.020671875 9.68359913512e-05
437 1 -0.021853125 -0.00125 -0.019490625 0.00187670034278
438 1 -0.021853125 -0.00125 -0.018309375 0.00196597577814
439 1 -0.021853125 -0.00125 -0.017128125 0.00309081113082
440 1 -0.021853125 -0.00125 -0.015946875 0.00812032161353
441 1 -0.021853125 -0.00125 -0.014765625 0.0110243189304
442 1 -0.021853125 -0.00125 -0.013584375 0.00146979443353
443 1 -0.021853125 -0.00125 -0.012403125 4.10005575845e-05
444 1 -0.021853125 -0.00125 -0.011221875 1.81745216518e-06
445 1 -0.021853125 -0.00125 -0.010040625 2.47826628824e-06
446 1 -0.021853125 -0.00125 -0.008859375 3.61195447295e-06
447 1 -0.021853125 -0.00125 -0.007678125 9.92848639364e-05
448 1 -0.021853125 -0.00125 -0.006496875 4.97075181962e-05
449 1 -0.021853125 -0.00125 -0.005315625 0.000501109380001
450 1 -0.021853125 -0.00125 -0.004134375 0.000941148669602
451 1 -0.021853125 -0.00125 -0.002953125 0.000730354656339
452 1 -0.021853125 -0.00125 -0.001771875 0.00142782198349
453 1 -0.021853125 -0.00125 -0.000590625 0.0219383826884
454 1 -0.021853125 -0.00125 0.000590625 0.0223725781222
455 1 -0.021853125 -0.00125 0.001771875 0.0117529805682
456 1 -0.021853125 -0.00125 0.002953125 0.0194458145241
457 1 -0.021853125 -0.00125 0.004134375 0.0282314576379
458 1 -0.021853125 -0.00125 0.005315625 0.0369701390874
459 1 -0.021853125 -0.00125 0.006496875 0.0253271281185
460 1 -0.021853125 -0.00125 0.007678125 0.00686305173562
461 1 -0.021853125 -0.00125 0.008859375 0.00276183160716
462 1 -0.021853125 -0.00125 0.010040625 0.000183390313925
463 1 -0.021853125 -0.00125 0.011221875 2.85047647451e-05
464 1 -0.021853125 -0.00125 0.012403125 1.29325534804e-05
465 1 -0.021853125 -0.00125 0.013584375 1.10880669399e-06
466 1 -0.021853125 -0.00125 0.014765625 5.47900704631e-06
467 1 -0.021853125 -0.00125 0.015946875 1.86001173305e-05
468 1 -0.021853125 -0.00125 0.017128125 0.000599004512415
469 1 -0.021853125 -0.00125 0.018309375 0.00514867104446
470 1 -0.021853125 -0.00125 0.019490625 0.00858620528698
471 1 -0.021853125 -0.00125 0.020671875 0.0277169769801
472 1 -0.021853125 -0.00125 0.021853125 0.00618824743115
473 1 -0.021853125 -0.00125 0.023034375 0.000548836482187
474 1 -0.021853125 -0.00125 0.024215625 1.90584034996e-05
475 1 -0.021853125 -0.00125 0.025396875 1.02428243596e-07
476 1 -0.021853125 -0.00125 0.026578125 8.10973190635e-08
477 1 -0.021853125 -0.00125 0.027759375 3.07182229353e-07
478 1 -0.021853125 -0.00125 0.028940625 2.20247978562e-07
479 1 -0.020671875 -0.00125 -0.030121875 7.50688677426e-41
480 1 -0.020671875 -0.00125 -0.028940625 6.36683479514e-47
481 1 -0.020671875 -0.00125 -0.027759375 4.43112744469e-42
482 1 -0.020671875 -0.00125 -0.026578125 3.07038401119e-37
483 1 -0.020671875 -0.00125 -0.025396875 1.5521552779e-18
484 1 -0.020671875 -0.00125 -0.024215625 5.57277368799e-11
485 1 -0.020671875 -0.00125 -0.023034375 2.3725306765e-07
486 1 -0.020671875 -0.00125 -0.021853125 0.000123052867468
487 1 -0.020671875 -0.00125 -0.020671875 0.000444223550083
488 1 -0.020671875 -0.00125 -0.019490625 0.00356669257826
489 1 -0.020671875 -0.00125 -0.018309375 0.00872405041673
490 1 -0.020671875 -0.00125 -0.017128125 0.0173301947276
491 1 -0.020671875 -0.00125 -0.015946875 0.0246128508729
492 1 -0.020671875 -0.00125 -0.014765625 0.0398101750966
493 1 -0.020671875 -0.00125 -0.013584375 0.00536905602663
494 1 -0.020671875 -0.00125 -0.012403125 0.00012604272228
495 1 -0.020671875 -0.00125 -0.011221875 3.46962649784e-05
496 1 -0.020671875 -0.00125 -0.010040625 0.000224367366764
497 1 -0.020671875 -0.00125 -0.008859375 6.98457313472e-05
498 1 -0.020671875 -0.00125 -0.007678125 0.000168129974085
499 1 -0.020671875 -0.00125 -0.006496875 0.000509232633697
500 1 -0.020671875 -0.00125 -0.005315625 0.000909774218141
501 1 -0.020671875 -0.00125 -0.004134375 0.00510192147785
502 1 -0.020671875 -0.00125 -0.002953125 0.00199767068175
503 1 -0.020671875 -0.00125 -0.001771875 0.0106947926595
504 1 -0.020671875 -0.00125 -0.000590625 0.025843694732
505 1 -0.020671875 -0.00125 0.000590625 0.032909360138
506 1 -0.020671875 -0.00125 0.001771875 0.0173595153717
507 1 -0.020671875 -0.00125 0.002953125 0.0119072728702
508 1 -0.020671875 -0.00125 0.004134375 0.0219389007549
509 1 -0.020671875 -0.00125 0.005315625 0.0331172493163
510 1 -0.020671875 -0.00125 0.006496875 0.0205441965403
511 1 -0.020671875 -0.00125 0.007678125 0.00503202649765
512 1 -0.020671875 -0.00125 0.008859375 0.00309133530482