ITEM: TIMESTEP
0
ITEM: NUMBER OF ATOMS
3080
ITEM: BOX BOUNDS ss ss ss
-3.7007399999999996e-02 3.7007399999999996e-02
-2.0002499999999999e-03 2.5000000000000004e-07
-3.7007399999999996e-02 3.7007399999999996e-02
ITEM: ATOMS id type x y z c_1
0 1 -0.037209375 -0.00125 -0.000590625 0.873871863537
1 1 -0.036028125 -0.00125 -0.007678125 1.94887199779e-16
2 1 -0.036028125 -0.00125 -0.006496875 4.39254446335e-16
3 1 -0.036028125 -0.00125 -0.005315625 1.11844672753e-09
4 1 -0.036028125 -0.00125 -0.004134375 1.12095433157e-17
5 1 -0.036028125 -0.00125 -0.002953125 4.19934786623e-06
6 1 -0.036028125 -0.00125 -0.001771875 1.18206364157e-11
7 1 -0.036028125 -0.00125 -0.000590625 0.000894784833856
8 1 -0.036028125 -0.00125 0.000590625 5.55801808625e-16
9 1 -0.036028125 -0.00125 0.001771875 5.78766901212e-05
10 1 -0.036028125 -0.00125 0.002953125 3.26647889845e-14
11 1 -0.036028125 -0.00125 0.004134375 1.01319247763e-12
12 1 -0.036028125 -0.00125 0.005315625 7.23649557287e-52
13 1 -0.036028125 -0.00125 0.006496875 3.81778589067e-14
14 1 -0.036028125 -0.00125 0.007678125 2.71831709107e-25
15 1 -0.034846875 -0.00125 -0.011221875 5.34046489386e-11
16 1 -0.034846875 -0.00125 -0.010040625 1.15643903447e-15
17 1 -0.034846875 -0.00125 -0.008859375 1.3233099406e-12
18 1 -0.034846875 -0.00125 -0.007678125 4.16950317852e-31
19 1 -0.034846875 -0.00125 -0.006496875 3.41178503766e-33
20 1 -0.034846875 -0.00125 -0.005315625 3.2949655255e-67
21 1 -0.034846875 -0.00125 -0.004134375 3.81694114613e-58
22 1 -0.034846875 -0.00125 -0.002953125 9.45155453061e-13
23 1 -0.034846875 -0.00125 -0.001771875 2.56357649053e-06
24 1 -0.034846875 -0.00125 -0.000590625 1.19718396568e-09
25 1 -0.034846875 -0.00125 0.000590625 1.04528238518e-06
26 1 -0.034846875 -0.00125 0.001771875 2.82667297701e-17
27 1 -0.034846875 -0.00125 0.002953125 1.04605156942e-72
28 1 -0.034846875 -0.00125 0.004134375 8.95777030678e-116
29 1 -0.034846875 -0.00125 0.005315625 1.47392776301e-70
30 1 -0.034846875 -0.00125 0.006496875 1.11351987994e-81
31 1 -0.034846875 -0.00125 0.007678125 2.52555513156e-37
32 1 -0.034846875 -0.00125 0.008859375 1.71996338395e-12
33 1 -0.034846875 -0.00125 0.010040625 2.41351009186e-14
34 1 -0.034846875 -0.00125 0.011221875 1.87124543155e-19
35 1 -0.033665625 -0.00125 -0.013584375 2.00480994086e-19
36 1 -0.033665625 -0.00125 -0.012403125 1.95892047378e-08
37 1 -0.033665625 -0.00125 -0.011221875 4.70952036665e-15
38 1 -0.033665625 -0.00125 -0.010040625 6.5146625919e-11
39 1 -0.033665625 -0.00125 -0.008859375 5.07431772051e-16
40 1 -0.033665625 -0.00125 -0.007678125 2.70373176001e-49
41 1 -0.033665625 -0.00125 -0.006496875 7.49967912665e-219
42 1 -0.033665625 -0.00125 -0.005315625 5.19077398076e-71
43 1 -0.033665625 -0.00125 -0.004134375 4.73088968898e-51
44 1 -0.033665625 -0.00125 -0.002953125 1.01946951162e-14
45 1 -0.033665625 -0.00125 -0.001771875 4.38624806182e-09
46 1 -0.033665625 -0.00125 -0.000590625 1.92069924726e-06
47 1 -0.033665625 -0.00125 0.000590625 1.65884082665e-10
48 1 -0.033665625 -0.00125 0.001771875 3.75740067534e-26
49 1 -0.033665625 -0.00125 0.002953125 2.16828908521e-53
50 1 -0.033665625 -0.00125 0.004134375 5.84051695246e-75
51 1 -0.033665625 -0.00125 0.005315625 1.13955837891e-116
52 1 -0.033665625 -0.00125 0.006496875 8.96803765569e-44
53 1 -0.033665625 -0.00125 0.007678125 1.36039406845e-28
54 1 -0.033665625 -0.00125 0.008859375 1.34536231978e-09
55 1 -0.033665625 -0.00125 0.010040625 2.22603834079e-12
56 1 -0.033665625 -0.00125 0.011221875 2.91756254054e-14
57 1 -0.033665625 -0.00125 0.012403125 2.37703473847e-15
58 1 -0.033665625 -0.00125 0.013584375 3.73248084626e-30
59 1 -0.032484375 -0.00125 -0.018309375 1.61786725357e-25
60 1 -0.032484375 -0.00125 -0.017128125 9.41463490142e-61
61 1 -0.032484375 -0.00125 -0.015946875 1.75806423613e-13
62 1 -0.032484375 -0.00125 -0.014765625 2.75332786438e-45
63 1 -0.032484375 -0.00125 -0.013584375 1.56919227675e-31
64 1 -0.032484375 -0.00125 -0.012403125 3.43941659826e-38
65 1 -0.032484375 -0.00125 -0.011221875 5.15343842384e-25
66 1 -0.032484375 -0.00125 -0.010040625 9.53374641431e-34
67 1 -0.032484375 -0.00125 -0.008859375 2.1248188998e-35
68 1 -0.032484375 -0.00125 -0.007678125 1.55837319931e-07
69 1 -0.032484375 -0.00125 -0.006496875 9.66870007277e-30
70 1 -0.032484375 -0.00125 -0.005315625 7.2616811189e-65
71 1 -0.032484375 -0.00125 -0.004134375 8.16559863402e-12
72 1 -0.032484375 -0.00125 -0.002953125 4.40019448488e-20
73 1 -0.032484375 -0.00125 -0.001771875 2.50518355315e-20
74 1 -0.032484375 -0.00125 -0.000590625 4.86405333684e-09
75 1 -0.032484375 -0.00125 0.000590625 2.63918656354e-13
76 1 -0.032484375 -0.00125 0.001771875 2.42057572389e-10
77 1 -0.032484375 -0.00125 0.002953125 1.34987821313e-28
78 1 -0.032484375 -0.00125 0.004134375 3.96317364318e-180
79 1 -0.032484375 -0.00125 0.005315625 4.8262071571e-60
80 1 -0.032484375 -0.00125 0.006496875 1.82585151056e-78
81 1 -0.032484375 -0.00125 0.007678125 5.4794195022e-43
82 1 -0.032484375 -0.00125 0.008859375 1.22983559079e-28
83 1 -0.032484375 -0.00125 0.010040625 1.37265735521e-16
84 1 -0.032484375 -0.00125 0.011221875 1.09594925622e-16
85 1 -0.032484375 -0.00125 0.012403125 5.28891187358e-15
86 1 -0.032484375 -0.00125 0.013584375 0.0
87 1 -0.032484375 -0.00125 0.014765625 6.64163308888e-55
88 1 -0.032484375 -0.00125 0.015946875 2.1935625333e-20
89 1 -0.032484375 -0.00125 0.017128125 1.63462620318e-38
90 1 -0.032484375 -0.00125 0.018309375 1.18784938104e-41
91 1 -0.031303125 -0.00125 -0.019490625 8.8613997273e-15
92 1 -0.031303125 -0.00125 -0.018309375 9.55075170484e-15
93 1 -0.031303125 -0.00125 -0.017128125 6.9492660206e-37
94 1 -0.031303125 -0.00125 -0.015946875 9.17195447519e-42
95 1 -0.031303125 -0.00125 -0.014765625 1.03602380243e-13
96 1 -0.031303125 -0.00125 -0.013584375 3.65384148134e-26
97 1 -0.031303125 -0.00125 -0.012403125 9.63740725477e-42
98 1 -0.031303125 -0.00125 -0.011221875 1.08185232149e-22
99 1 -0.031303125 -0.00125 -0.010040625 1.48179778518e-15
100 1 -0.031303125 -0.00125 -0.008859375 1.84711349982e-26
101 1 -0.031303125 -0.00125 -0.007678125 6.09351060882e-21
102 1 -0.031303125 -0.00125 -0.006496875 3.5238871542e-41
103 1 -0.031303125 -0.00125 -0.005315625 1.24397029492e-25
104 1 -0.031303125 -0.00125 -0.004134375 1.87423555833e-55
105 1 -0.031303125 -0.00125 -0.002953125 3.86542138394e-09
106 1 -0.031303125 -0.00125 -0.001771875 1.11827461854e-11
107 1 -0.031303125 -0.00125 -0.000590625 5.58431022837e-11
108 1 -0.031303125 -0.00125 0.000590625 2.706003923e-29
109 1 -0.031303125 -0.00125 0.001771875 1.41772645733e-13
110 1 -0.031303125 -0.00125 0.002953125 1.88970575211e-21
111 1 -0.031303125 -0.00125 0.004134375 1.34349650792e-41
112 1 -0.031303125 -0.00125 0.005315625 2.0796494292e-19
113 1 -0.031303125 -0.00125 0.006496875 1.91810854757e-22
114 1 -0.031303125 -0.00125 0.007678125 7.48113602039e-30
115 1 -0.031303125 -0.00125 0.008859375 2.5573035653e-47
116 1 -0.031303125 -0.00125 0.010040625 1.47843856683e-147
117 1 -0.031303125 -0.00125 0.011221875 5.56125499035e-46
118 1 -0.031303125 -0.00125 0.012403125 1.10595767038e-20
119 1 -0.031303125 -0.00125 0.013584375 4.95765779149e-48
120 1 -0.031303125 -0.00125 0.014765625 6.01334553448e-54
121 1 -0.031303125 -0.00125 0.015946875 4.74936401124e-47
122 1 -0.031303125 -0.00125 0.017128125 7.8514892958e-96
123 1 -0.031303125 -0.00125 0.018309375 2.19672227159e-22
124 1 -0.031303125 -0.00125 0.019490625 1.70742711316e-79
125 1 -0.030121875 -0.00125 -0.020671875 2.44471301739e-71
126 1 -0.030121875 -0.00125 -0.019490625 1.59262728479e-33
127 1 -0.030121875 -0.00125 -0.018309375 5.78153647269e-25
128 1 -0.030121875 -0.00125 -0.017128125 1.16940288086e-28
129 1 -0.030121875 -0.00125 -0.015946875 8.83353951397e-129
130 1 -0.030121875 -0.00125 -0.014765625 2.13549618254e-57
131 1 -0.030121875 -0.00125 -0.013584375 7.43877521128e-46
132 1 -0.030121875 -0.00125 -0.012403125 4.80441703176e-23
133 1 -0.030121875 -0.00125 -0.011221875 4.93057417717e-14
134 1 -0.030121875 -0.00125 -0.010040625 9.50083217871e-49
135 1 -0.030121875 -0.00125 -0.008859375 2.14060362332e-47
136 1 -0.030121875 -0.00125 -0.007678125 5.45295886348e-28
137 1 -0.030121875 -0.00125 -0.006496875 1.29352172314e-33
138 1 -0.030121875 -0.00125 -0.005315625 2.32233918331e-36
139 1 -0.030121875 -0.00125 -0.004134375 2.01831091981e-58
140 1 -0.030121875 -0.00125 -0.002953125 8.05167441081e-34
141 1 -0.030121875 -0.00125 -0.001771875 1.60756502209e-15
142 1 -0.030121875 -0.00125 -0.000590625 2.88028127657e-35
143 1 -0.030121875 -0.00125 0.000590625 4.25201635089e-53
144 1 -0.030121875 -0.00125 0.001771875 2.40326305819e-10
145 1 -0.030121875 -0.00125 0.002953125 1.22595848148e-19
146 1 -0.030121875 -0.00125 0.004134375 4.8014183973e-39
147 1 -0.030121875 -0.00125 0.005315625 7.62134511996e-45
148 1 -0.030121875 -0.00125 0.006496875 7.15322792831e-38
149 1 -0.030121875 -0.00125 0.007678125 4.57625900692e-60
150 1 -0.030121875 -0.00125 0.008859375 1.81286700098e-90
151 1 -0.030121875 -0.00125 0.010040625 1.76972624763e-97
152 1 -0.030121875 -0.00125 0.011221875 5.25459341033e-119
153 1 -0.030121875 -0.00125 0.012403125 4.02027845001e-44
154 1 -0.030121875 -0.00125 0.013584375 7.34081325615e-44
155 1 -0.030121875 -0.00125 0.014765625 4.80443397422e-43
156 1 -0.030121875 -0.00125 0.015946875 1.183900072e-61
157 1 -0.030121875 -0.00125 0.017128125 1.95873340689e-90
158 1 -0.030121875 -0.00125 0.018309375 9.88559652515e-56
159 1 -0.030121875 -0.00125 0.019490625 1.53977657708e-155
160 1 -0.030121875 -0.00125 0.020671875 2.01838966272e-109
161 1 -0.028940625 -0.00125 -0.021853125 4.91302958474e-10
162 1 -0.028940625 -0.00125 -0.020671875 3.338481631e-17
163 1 -0.028940625 -0.00125 -0.019490625 1.70087729247e-10
164 1 -0.028940625 -0.00125 -0.018309375 2.59188758542e-34
165 1 -0.028940625 -0.00125 -0.017128125 3.44929776052e-36
166 1 -0.028940625 -0.00125 -0.015946875 1.99834921505e-29
167 1 -0.028940625 -0.00125 -0.014765625 8.33349435461e-23
168 1 -0.028940625 -0.00125 -0.013584375 5.06020483856e-33
169 1 -0.028940625 -0.00125 -0.012403125 1.12985968776e-78
170 1 -0.028940625 -0.00125 -0.011221875 9.44116087709e-82
171 1 -0.028940625 -0.00125 -0.010040625 1.62114243584e-28
172 1 -0.028940625 -0.00125 -0.008859375 1.25034830881e-64
173 1 -0.028940625 -0.00125 -0.007678125 2.65143880148e-25
174 1 -0.028940625 -0.00125 -0.006496875 1.13385567573e-23
175 1 -0.028940625 -0.00125 -0.005315625 4.87311300556e-16
176 1 -0.028940625 -0.00125 -0.004134375 1.65489157882e-24
177 1 -0.028940625 -0.00125 -0.002953125 8.48945277623e-23
178 1 -0.028940625 -0.00125 -0.001771875 5.74910520372e-33
179 1 -0.028940625 -0.00125 -0.000590625 1.01543217623e-22
180 1 -0.028940625 -0.00125 0.000590625 8.37101160966e-22
181 1 -0.028940625 -0.00125 0.001771875 1.04104238531e-17
182 1 -0.028940625 -0.00125 0.002953125 6.57570507716e-29
183 1 -0.028940625 -0.00125 0.004134375 4.16256524513e-23
184 1 -0.028940625 -0.00125 0.005315625 2.28343968442e-95
185 1 -0.028940625 -0.00125 0.006496875 7.6539139661e-32
186 1 -0.028940625 -0.00125 0.007678125 1.09207790377e-78
187 1 -0.028940625 -0.00125 0.008859375 7.7706665456e-49
188 1 -0.028940625 -0.00125 0.010040625 3.57320145743e-143
189 1 -0.028940625 -0.00125 0.011221875 5.41917986541e-71
190 1 -0.028940625 -0.00125 0.012403125 3.31917662985e-137
191 1 -0.028940625 -0.00125 0.013584375 7.24328553619e-60
192 1 -0.028940625 -0.00125 0.014765625 1.64582715588e-78
193 1 -0.028940625 -0.00125 0.015946875 5.75154535499e-44
194 1 -0.028940625 -0.00125 0.017128125 1.38055797094e-72
195 1 -0.028940625 -0.00125 0.018309375 1.56525524646e-49
196 1 -0.028940625 -0.00125 0.019490625 9.97305661394e-132
197 1 -0.028940625 -0.00125 0.020671875 4.027236854e-107
198 1 -0.028940625 -0.00125 0.021853125 1.04051126313e-85
199 1 -0.027759375 -0.00125 -0.024215625 3.97051205106e-22
200 1 -0.027759375 -0.00125 -0.023034375 2.38468445538e-19
201 1 -0.027759375 -0.00125 -0.021853125 1.81262933645e-07
202 1 -0.027759375 -0.00125 -0.020671875 2.55011431432e-32
203 1 -0.027759375 -0.00125 -0.019490625 9.34073226699e-23
204 1 -0.027759375 -0.00125 -0.018309375 5.27020723175e-22
205 1 -0.027759375 -0.00125 -0.017128125 2.6505700543e-20
206 1 -0.027759375 -0.00125 -0.015946875 7.17774682669e-70
207 1 -0.027759375 -0.00125 -0.014765625 1.66671304573e-53
208 1 -0.027759375 -0.00125 -0.013584375 9.87228330814e-201
209 1 -0.027759375 -0.00125 -0.012403125 1.53150515327e-28
210 1 -0.027759375 -0.00125 -0.011221875 1.45170666212e-43
211 1 -0.027759375 -0.00125 -0.010040625 2.84105875976e-61
212 1 -0.027759375 -0.00125 -0.008859375 6.20155826698e-29
213 1 -0.027759375 -0.00125 -0.007678125 1.82087183848e-25
214 1 -0.027759375 -0.00125 -0.006496875 9.55960679819e-14
215 1 -0.027759375 -0.00125 -0.005315625 1.31158206541e-21
216 1 -0.027759375 -0.00125 -0.004134375 9.54592021319e-35
217 1 -0.027759375 -0.00125 -0.002953125 8.50645194079e-08
218 1 -0.027759375 -0.00125 -0.001771875 2.76965476207e-17
219 1 -0.027759375 -0.00125 -0.000590625 0.000238238881251
220 1 -0.027759375 -0.00125 0.000590625 1.58731833258e-08
221 1 -0.027759375 -0.00125 0.001771875 4.52096828487e-06
222 1 -0.027759375 -0.00125 0.002953125 1.03992161739e-31
223 1 -0.027759375 -0.00125 0.004134375 6.23444344359e-68
224 1 -0.027759375 -0.00125 0.005315625 1.10626620632e-09
225 1 -0.027759375 -0.00125 0.006496875 4.75614895727e-34
226 1 -0.027759375 -0.00125 0.007678125 1.11125813992e-123
227 1 -0.027759375 -0.00125 0.008859375 1.23463749946e-18
228 1 -0.027759375 -0.00125 0.010040625 1.30166444988e-10
229 1 -0.027759375 -0.00125 0.011221875 1.3123567011e-57
230 1 -0.027759375 -0.00125 0.012403125 2.08616509e-90
231 1 -0.027759375 -0.00125 0.013584375 4.89799035844e-73
232 1 -0.027759375 -0.00125 0.014765625 4.18434497639e-37
233 1 -0.027759375 -0.00125 0.015946875 7.53769120469e-111
234 1 -0.027759375 -0.00125 0.017128125 1.8265110248e-39
235 1 -0.027759375 -0.00125 0.018309375 8.0272911684e-24
236 1 -0.027759375 -0.00125 0.019490625 5.4636000148e-37
237 1 -0.027759375 -0.00125 0.020671875 2.4649402646e-91
238 1 -0.027759375 -0.00125 0.021853125 2.37193021325e-59
239 1 -0.027759375 -0.00125 0.023034375 2.56105651474e-46
240 1 -0.027759375 -0.00125 0.024215625 2.77702571795e-47
241 1 -0.026578125 -0.00125 -0.026578125 3.66502149831e-16
242 1 -0.026578125 -0.00125 -0.025396875 1.82863377343e-25
243 1 -0.026578125 -0.00125 -0.024215625 5.2570576014e-23
244 1 -0.026578125 -0.00125 -0.023034375 2.22304332097e-32
245 1 -0.026578125 -0.00125 -0.021853125 6.83673533093e-17
246 1 -0.026578125 -0.00125 -0.020671875 4.34975103782e-14
247 1 -0.026578125 -0.00125 -0.019490625 6.29479934555e-12
248 1 -0.026578125 -0.00125 -0.018309375 4.20756984196e-17
249 1 -0.026578125 -0.00125 -0.017128125 1.57567086223e-20
250 1 -0.026578125 -0.00125 -0.015946875 1.89372070206e-52
251 1 -0.026578125 -0.00125 -0.014765625 2.19255768039e-59
252 1 -0.026578125 -0.00125 -0.013584375 7.89016797942e-20
253 1 -0.026578125 -0.00125 -0.012403125 8.65980083867e-26
254 1 -0.026578125 -0.00125 -0.011221875 2.81362531621e-31
255 1 -0.026578125 -0.00125 -0.010040625 7.38246227817e-33
256 1 -0.026578125 -0.00125 -0.008859375 1.1607218347e-23
257 1 -0.026578125 -0.00125 -0.007678125 3.30607068324e-05
258 1 -0.026578125 -0.00125 -0.006496875 1.34687666646e-13
259 1 -0.026578125 -0.00125 -0.005315625 4.89929218424e-15
260 1 -0.026578125 -0.00125 -0.004134375 2.93777351723e-16
261 1 -0.026578125 -0.00125 -0.002953125 1.10508531243e-08
262 1 -0.026578125 -0.00125 -0.001771875 6.7376742897e-06
263 1 -0.026578125 -0.00125 -0.000590625 6.14350889129e-09
264 1 -0.026578125 -0.00125 0.000590625 9.65523890766e-14
265 1 -0.026578125 -0.00125 0.001771875 1.58894897478e-05
266 1 -0.026578125 -0.00125 0.002953125 8.59709084122e-05
267 1 -0.026578125 -0.00125 0.004134375 4.38006023798e-10
268 1 -0.026578125 -0.00125 0.005315625 9.18624088086e-15
269 1 -0.026578125 -0.00125 0.006496875 1.23422412104e-24
270 1 -0.026578125 -0.00125 0.007678125 3.01137891967e-10
271 1 -0.026578125 -0.00125 0.008859375 5.65841121488e-27
272 1 -0.026578125 -0.00125 0.010040625 6.8460826989e-19
273 1 -0.026578125 -0.00125 0.011221875 1.74928124361e-14
274 1 -0.026578125 -0.00125 0.012403125 3.46979430233e-32
275 1 -0.026578125 -0.00125 0.013584375 8.03792732088e-22
276 1 -0.026578125 -0.00125 0.014765625 4.9452615918e-31
277 1 -0.026578125 -0.00125 0.015946875 5.76541985681e-18
278 1 -0.026578125 -0.00125 0.017128125 4.05570682079e-12
279 1 -0.026578125 -0.00125 0.018309375 7.16769958592e-18
280 1 -0.026578125 -0.00125 0.019490625 4.53533487935e-38
281 1 -0.026578125 -0.00125 0.020671875 6.67661830141e-60
282 1 -0.026578125 -0.00125 0.021853125 1.98727841942e-57
283 1 -0.026578125 -0.00125 0.023034375 1.07014596872e-90
284 1 -0.026578125 -0.00125 0.024215625 4.44307264765e-74
285 1 -0.026578125 -0.00125 0.025396875 5.44826965314e-110
286 1 -0.026578125 -0.00125 0.026578125 1.73265100573e-38
287 1 -0.025396875 -0.00125 -0.026578125 5.33776162279e-30
288 1 -0.025396875 -0.00125 -0.025396875 2.67297470243e-17
289 1 -0.025396875 -0.00125 -0.024215625 1.53211306552e-22
290 1 -0.025396875 -0.00125 -0.023034375 2.87377244561e-23
291 1 -0.025396875 -0.00125 -0.021853125 1.46335969438e-21
292 1 -0.025396875 -0.00125 -0.020671875 1.95188013991e-11
293 1 -0.025396875 -0.00125 -0.019490625 1.09066000895e-13
294 1 -0.025396875 -0.00125 -0.018309375 3.40846758933e-47
295 1 -0.025396875 -0.00125 -0.017128125 1.00017975591e-69
296 1 -0.025396875 -0.00125 -0.015946875 2.66345923474e-54
297 1 -0.025396875 -0.00125 -0.014765625 3.41716964274e-09
298 1 -0.025396875 -0.00125 -0.013584375 1.37403812447e-42
299 1 -0.025396875 -0.00125 -0.012403125 7.43886918791e-08
300 1 -0.025396875 -0.00125 -0.011221875 1.0739848027e-22
301 1 -0.025396875 -0.00125 -0.010040625 2.97113277473e-10
302 1 -0.025396875 -0.00125 -0.008859375 4.53182273176e-12
303 1 -0.025396875 -0.00125 -0.007678125 4.59258882518e-08
304 1 -0.025396875 -0.00125 -0.006496875 0.000118444553886
305 1 -0.025396875 -0.00125 -0.005315625 2.06135293182e-07
306 1 -0.025396875 -0.00125 -0.004134375 1.33796160265e-22
307 1 -0.025396875 -0.00125 -0.002953125 6.08442578073e-06
308 1 -0.025396875 -0.00125 -0.001771875 7.48004392844e-12
309 1 -0.025396875 -0.00125 -0.000590625 6.46879618695e-10
310 1 -0.025396875 -0.00125 0.000590625 1.63686747297e-14
311 1 -0.025396875 -0.00125 0.001771875 2.06953753178e-05
312 1 -0.025396875 -0.00125 0.002953125 9.77390536105e-06
313 1 -0.025396875 -0.00125 0.004134375 9.71205598756e-05
314 1 -0.025396875 -0.00125 0.005315625 2.27422285377e-12
315 1 -0.025396875 -0.00125 0.006496875 3.76800496012e-05
316 1 -0.025396875 -0.00125 0.007678125 6.27854250089e-08
317 1 -0.025396875 -0.00125 0.008859375 1.67157068956e-13
318 1 -0.025396875 -0.00125 0.010040625 9.28984547576e-113
319 1 -0.025396875 -0.00125 0.011221875 2.64866324826e-15
320 1 -0.025396875 -0.00125 0.012403125 1.06668864475e-12
321 1 -0.025396875 -0.00125 0.013584375 3.27353716919e-09
322 1 -0.025396875 -0.00125 0.014765625 2.79793496458e-18
323 1 -0.025396875 -0.00125 0.015946875 6.40217144488e-12
324 1 -0.025396875 -0.00125 0.017128125 4.96460911181e-17
325 1 -0.025396875 -0.00125 0.018309375 7.13171747503e-14
326 1 -0.025396875 -0.00125 0.019490625 4.0387965039e-42
327 1 -0.025396875 -0.00125 0.020671875 1.34877159255e-28
328 1 -0.025396875 -0.00125 0.021853125 4.814934915e-140
329 1 -0.025396875 -0.00125 0.023034375 7.28403159986e-85
330 1 -0.025396875 -0.00125 0.024215625 6.01971658025e-38
331 1 -0.025396875 -0.00125 0.025396875 7.85954847407e-176
332 1 -0.025396875 -0.00125 0.026578125 5.41113333387e-86
333 1 -0.024215625 -0.00125 -0.027759375 8.36396755257e-13
334 1 -0.024215625 -0.00125 -0.026578125 2.43822270761e-18
335 1 -0.024215625 -0.00125 -0.025396875 6.6482695296e-18
336 1 -0.024215625 -0.00125 -0.024215625 1.20094084358e-13
337 1 -0.024215625 -0.00125 -0.023034375 1.94724343167e-38
338 1 -0.024215625 -0.00125 -0.021853125 2.84968290848e-16
339 1 -0.024215625 -0.00125 -0.020671875 1.68906765529e-11
340 1 -0.024215625 -0.00125 -0.019490625 1.30080171751e-10
341 1 -0.024215625 -0.00125 -0.018309375 1.12777184406e-20
342 1 -0.024215625 -0.00125 -0.017128125 1.43705616811e-26
343 1 -0.024215625 -0.00125 -0.015946875 8.79712170561e-15
344 1 -0.024215625 -0.00125 -0.014765625 5.17495922111e-08
345 1 -0.024215625 -0.00125 -0.013584375 1.69592782991e-13
346 1 -0.024215625 -0.00125 -0.012403125 2.60718890271e-07
347 1 -0.024215625 -0.00125 -0.011221875 8.52482104087e-10
348 1 -0.024215625 -0.00125 -0.010040625 0.000108727375791
349 1 -0.024215625 -0.00125 -0.008859375 2.36172476043e-07
350 1 -0.024215625 -0.00125 -0.007678125 1.48857525919e-11
351 1 -0.024215625 -0.00125 -0.006496875 0.000196962410441
352 1 -0.024215625 -0.00125 -0.005315625 2.06313407919e-05
353 1 -0.024215625 -0.00125 -0.004134375 7.59866891069e-07
354 1 -0.024215625 -0.00125 -0.002953125 2.33063762256e-05
355 1 -0.024215625 -0.00125 -0.001771875 1.675148549e-07
356 1 -0.024215625 -0.00125 -0.000590625 3.62343117559e-05
357 1 -0.024215625 -0.00125 0.000590625 4.5188282691e-07
358 1 -0.024215625 -0.00125 0.001771875 5.63254396803e-05
359 1 -0.024215625 -0.00125 0.002953125 0.00127865299859
360 1 -0.024215625 -0.00125 0.004134375 0.000115052731273
361 1 -0.024215625 -0.00125 0.005315625 3.16248713774e-05
362 1 -0.024215625 -0.00125 0.006496875 0.000254725321351
363 1 -0.024215625 -0.00125 0.007678125 3.63501497317e-07
364 1 -0.024215625 -0.00125 0.008859375 1.10840507467e-09
365 1 -0.024215625 -0.00125 0.010040625 1.28973365259e-08
366 1 -0.024215625 -0.00125 0.011221875 1.5509223073e-17
367 1 -0.024215625 -0.00125 0.012403125 1.47251048338e-07
368 1 -0.024215625 -0.00125 0.013584375 8.5755027556e-05
369 1 -0.024215625 -0.00125 0.014765625 4.92535773218e-06
370 1 -0.024215625 -0.00125 0.015946875 1.74029792497e-09
371 1 -0.024215625 -0.00125 0.017128125 1.12598948719e-10
372 1 -0.024215625 -0.00125 0.018309375 1.07886436835e-20
373 1 -0.024215625 -0.00125 0.019490625 9.1470482927e-29
374 1 -0.024215625 -0.00125 0.020671875 5.88371074212e-34
375 1 -0.024215625 -0.00125 0.021853125 1.9509221548e-29
376 1 -0.024215625 -0.00125 0.023034375 1.65347103326e-71
377 1 -0.024215625 -0.00125 0.024215625 0.0
378 1 -0.024215625 -0.00125 0.025396875 2.23071684021e-50
379 1 -0.024215625 -0.00125 0.026578125 3.82342077553e-73
380 1 -0.024215625 -0.00125 0.027759375 2.51624972769e-48
381 1 -0.023034375 -0.00125 -0.027759375 6.46654896438e-67
382 1 -0.023034375 -0.00125 -0.026578125 7.32772676382e-13
383 1 -0.023034375 -0.00125 -0.025396875 7.01474100316e-17
384 1 -0.023034375 -0.00125 -0.024215625 8.99728288304e-14
385 1 -0.023034375 -0.00125 -0.023034375 7.34936166731e-09
386 1 -0.023034375 -0.00125 -0.021853125 4.50489899104e-17
387 1 -0.023034375 -0.00125 -0.020671875 3.3949257694e-12
388 1 -0.023034375 -0.00125 -0.019490625 7.56213982922e-09
389 1 -0.023034375 -0.00125 -0.018309375 2.86498140545e-19
390 1 -0.023034375 -0.00125 -0.017128125 1.13597487254e-06
391 1 -0.023034375 -0.00125 -0.015946875 2.14338762334e-08
392 1 -0.023034375 -0.00125 -0.014765625 1.04108537304e-10
393 1 -0.023034375 -0.00125 -0.013584375 1.7952649744e-10
394 1 -0.023034375 -0.00125 -0.012403125 4.49905168815e-07
395 1 -0.023034375 -0.00125 -0.011221875 6.33960872413e-13
396 1 -0.023034375 -0.00125 -0.010040625 6.48188818148e-05
397 1 -0.023034375 -0.00125 -0.008859375 6.23525554886e-05
398 1 -0.023034375 -0.00125 -0.007678125 8.72686469093e-09
399 1 -0.023034375 -0.00125 -0.006496875 0.000343512824686
400 1 -0.023034375 -0.00125 -0.005315625 0.00127786601618
401 1 -0.023034375 -0.00125 -0.004134375 2.83758821246e-05
402 1 -0.023034375 -0.00125 -0.002953125 2.77418574599e-07
403 1 -0.023034375 -0.00125 -0.001771875 0.000120700431535
404 1 -0.023034375 -0.00125 -0.000590625 5.01065695328e-05
405 1 -0.023034375 -0.00125 0.000590625 4.75157992855e-06
406 1 -0.023034375 -0.00125 0.001771875 1.38412066326e-05
407 1 -0.023034375 -0.00125 0.002953125 9.46100724422e-06
408 1 -0.023034375 -0.00125 0.004134375 0.000310830900582
409 1 -0.023034375 -0.00125 0.005315625 2.76734718318e-05
410 1 -0.023034375 -0.00125 0.006496875 0.00127667284187
411 1 -0.023034375 -0.00125 0.007678125 1.12354962319e-06
412 1 -0.023034375 -0.00125 0.008859375 6.05095971899e-05
413 1 -0.023034375 -0.00125 0.010040625 6.36403140762e-05
414 1 -0.023034375 -0.00125 0.011221875 4.02545469783e-07
415 1 -0.023034375 -0.00125 0.012403125 4.76134079132e-22
416 1 -0.023034375 -0.00125 0.013584375 0.000191107177148
417 1 -0.023034375 -0.00125 0.014765625 1.57702708833e-07
418 1 -0.023034375 -0.00125 0.015946875 7.49588248975e-09
419 1 -0.023034375 -0.00125 0.017128125 4.61520717749e-15
420 1 -0.023034375 -0.00125 0.018309375 0.000210760658519
421 1 -0.023034375 -0.00125 0.019490625 3.76845765235e-10
422 1 -0.023034375 -0.00125 0.020671875 1.08947192032e-37
423 1 -0.023034375 -0.00125 0.021853125 9.45578752094e-45
424 1 -0.023034375 -0.00125 0.023034375 2.30508493362e-89
425 1 -0.023034375 -0.00125 0.024215625 8.97342473733e-62
426 1 -0.023034375 -0.00125 0.025396875 5.98428503696e-204
427 1 -0.023034375 -0.00125 0.026578125 7.17228083063e-72
428 1 -0.023034375 -0.00125 0.027759375 2.67328735455e-47
429 1 -0.021853125 -0.00125 -0.028940625 2.99001744891e-09
430 1 -0.021853125 -0.00125 -0.027759375 8.92464164615e-11
431 1 -0.021853125 -0.00125 -0.026578125 9.20764996858e-18
432 1 -0.021853125 -0.00125 -0.025396875 4.76820099474e-08
433 1 -0.021853125 -0.00125 -0.024215625 2.60566131185e-12
434 1 -0.021853125 -0.00125 -0.023034375 5.9791952413e-07
435 1 -0.021853125 -0.00125 -0.021853125 1.54058211297e-08
436 1 -0.021853125 -0.00125 -0.020671875 9.54754333204e-08
437 1 -0.021853125 -0.00125 -0.019490625 8.48879979486e-06
438 1 -0.021853125 -0.00125 -0.018309375 1.92006264674e-14
439 1 -0.021853125 -0.00125 -0.017128125 3.74115375787e-05
440 1 -0.021853125 -0.00125 -0.015946875 4.31576330414e-05
441 1 -0.021853125 -0.00125 -0.014765625 2.04151123664e-05
442 1 -0.021853125 -0.00125 -0.013584375 0.00140343251458
443 1 -0.021853125 -0.00125 -0.012403125 7.57911443747e-05
444 1 -0.021853125 -0.00125 -0.011221875 0.000328099225203
445 1 -0.021853125 -0.00125 -0.010040625 1.74231396555e-06
446 1 -0.021853125 -0.00125 -0.008859375 1.89586609908e-05
447 1 -0.021853125 -0.00125 -0.007678125 0.000573407862875
448 1 -0.021853125 -0.00125 -0.006496875 0.000164558513808
449 1 -0.021853125 -0.00125 -0.005315625 0.00214874680123
450 1 -0.021853125 -0.00125 -0.004134375 0.00212828326666
451 1 -0.021853125 -0.00125 -0.002953125 2.13857827434e-05
452 1 -0.021853125 -0.00125 -0.001771875 1.15349756379e-06
453 1 -0.021853125 -0.00125 -0.000590625 0.00170083296603
454 1 -0.021853125 -0.00125 0.000590625 0.000138526464265
455 1 -0.021853125 -0.00125 0.001771875 2.85633243216e-05
456 1 -0.021853125 -0.00125 0.002953125 0.00222749540165
457 1 -0.021853125 -0.00125 0.004134375 0.000373068546658
458 1 -0.021853125 -0.00125 0.005315625 0.000307947306537
459 1 -0.021853125 -0.00125 0.006496875 0.000174833957815
460 1 -0.021853125 -0.00125 0.007678125 3.50287528423e-05
461 1 -0.021853125 -0.00125 0.008859375 0.000126039602151
462 1 -0.021853125 -0.00125 0.010040625 2.03342044778e-05
463 1 -0.021853125 -0.00125 0.011221875 0.000874391512697
464 1 -0.021853125 -0.00125 0.012403125 0.00188889319152
465 1 -0.021853125 -0.00125 0.013584375 0.000187813777764
466 1 -0.021853125 -0.00125 0.014765625 6.41150599751e-05
467 1 -0.021853125 -0.00125 0.015946875 0.000211216052275
468 1 -0.021853125 -0.00125 0.017128125 7.73891184071e-06
469 1 -0.021853125 -0.00125 0.018309375 3.5522128879e-09
470 1 -0.021853125 -0.00125 0.019490625 1.21685232287e-13
471 1 -0.021853125 -0.00125 0.020671875 1.08190944075e-13
472 1 -0.021853125 -0.00125 0.021853125 1.38897071017e-15
473 1 -0.021853125 -0.00125 0.023034375 2.19289687411e-25
474 1 -0.021853125 -0.00125 0.024215625 1.66018684455e-39
475 1 -0.021853125 -0.00125 0.025396875 6.06388965949e-65
476 1 -0.021853125 -0.00125 0.026578125 2.29862642321e-174
477 1 -0.021853125 -0.00125 0.027759375 6.9716677548e-44
478 1 -0.021853125 -0.00125 0.028940625 5.86251497525e-58
479 1 -0.020671875 -0.00125 -0.030121875 1.08824287897e-11
480 1 -0.020671875 -0.00125 -0.028940625 1.65605680223e-11
481 1 -0.020671875 -0.00125 -0.027759375 2.23217872579e-15
482 1 -0.020671875 -0.00125 -0.026578125 2.34390923277e-06
483 1 -0.020671875 -0.00125 -0.025396875 2.86243033363e-13
484 1 -0.020671875 -0.00125 -0.024215625 3.6501665067e-10
485 1 -0.020671875 -0.00125 -0.023034375 5.1632656251e-06
486 1 -0.020671875 -0.00125 -0.021853125 2.30839677498e-07
487 1 -0.020671875 -0.00125 -0.020671875 1.77978602435e-09
488 1 -0.020671875 -0.00125 -0.019490625 0.00073179824929
489 1 -0.020671875 -0.00125 -0.018309375 2.33889538987e-12
490 1 -0.020671875 -0.00125 -0.017128125 0.000195350329212
491 1 -0.020671875 -0.00125 -0.015946875 1.56296712577e-07
492 1 -0.020671875 -0.00125 -0.014765625 0.000611066537278
493 1 -0.020671875 -0.00125 -0.013584375 0.00283107420882
494 1 -0.020671875 -0.00125 -0.012403125 0.000234472724719
495 1 -0.020671875 -0.00125 -0.011221875 3.42646797051e-08
496 1 -0.020671875 -0.00125 -0.010040625 9.08565801101e-06
497 1 -0.020671875 -0.00125 -0.008859375 2.77157221737e-06
498 1 -0.020671875 -0.00125 -0.007678125 3.7801037902e-06
499 1 -0.020671875 -0.00125 -0.006496875 0.000239082095789
500 1 -0.020671875 -0.00125 -0.005315625 0.000136851402934
501 1 -0.020671875 -0.00125 -0.004134375 0.00257622745317
502 1 -0.020671875 -0.00125 -0.002953125 1.20072777674e-05
503 1 -0.020671875 -0.00125 -0.001771875 0.000447190352764
504 1 -0.020671875 -0.00125 -0.000590625 0.000871474819169
505 1 -0.020671875 -0.00125 0.000590625 0.0104688355618
506 1 -0.020671875 -0.00125 0.001771875 0.000844524039422
507 1 -0.020671875 -0.00125 0.002953125 0.000568212601945
508 1 -0.020671875 -0.00125 0.004134375 0.00122646750173
509 1 -0.020671875 -0.00125 0.005315625 0.000199419474333
510 1 -0.020671875 -0.00125 0.006496875 0.00199980012942