ITEM: TIMESTEP
0
ITEM: NUMBER OF ATOMS
3080
ITEM: BOX BOUNDS ss ss ss
-3.7007399999999996e-02 3.7007399999999996e-02
-2.0002499999999999e-03 2.5000000000000004e-07
-3.7007399999999996e-02 3.7007399999999996e-02
ITEM: ATOMS id type x y z c_1
0 1 -0.037209375 -0.00125 -0.000590625 0.182170236179
1 1 -0.036028125 -0.00125 -0.007678125 8.05578142248e-07
2 1 -0.036028125 -0.00125 -0.006496875 6.78149176564e-10
3 1 -0.036028125 -0.00125 -0.005315625 5.7741101144e-16
4 1 -0.036028125 -0.00125 -0.004134375 1.96189416026e-11
5 1 -0.036028125 -0.00125 -0.002953125 0.00276862015069
6 1 -0.036028125 -0.00125 -0.001771875 0.0476566028303
7 1 -0.036028125 -0.00125 -0.000590625 0.073163607616
8 1 -0.036028125 -0.00125 0.000590625 0.169817927854
9 1 -0.036028125 -0.00125 0.001771875 0.32119551276
10 1 -0.036028125 -0.00125 0.002953125 0.00852297646198
11 1 -0.036028125 -0.00125 0.004134375 3.23274987964e-07
12 1 -0.036028125 -0.00125 0.005315625 2.08472197999e-10
13 1 -0.036028125 -0.00125 0.006496875 1.17866746974e-07
14 1 -0.036028125 -0.00125 0.007678125 1.38997688141e-05
15 1 -0.034846875 -0.00125 -0.011221875 0.000192682407412
16 1 -0.034846875 -0.00125 -0.010040625 6.27517379757e-05
17 1 -0.034846875 -0.00125 -0.008859375 0.00468434041603
18 1 -0.034846875 -0.00125 -0.007678125 2.24757429701e-07
19 1 -0.034846875 -0.00125 -0.006496875 4.90491424241e-12
20 1 -0.034846875 -0.00125 -0.005315625 1.83708602634e-15
21 1 -0.034846875 -0.00125 -0.004134375 4.06198406999e-10
22 1 -0.034846875 -0.00125 -0.002953125 0.00104596694542
23 1 -0.034846875 -0.00125 -0.001771875 0.0471477117663
24 1 -0.034846875 -0.00125 -0.000590625 0.0877248612655
25 1 -0.034846875 -0.00125 0.000590625 0.214007454921
26 1 -0.034846875 -0.00125 0.001771875 0.301033572196
27 1 -0.034846875 -0.00125 0.002953125 0.0289016993868
28 1 -0.034846875 -0.00125 0.004134375 2.07021936984e-08
29 1 -0.034846875 -0.00125 0.005315625 7.2078571373e-14
30 1 -0.034846875 -0.00125 0.006496875 2.69372454363e-13
31 1 -0.034846875 -0.00125 0.007678125 0.000438421328837
32 1 -0.034846875 -0.00125 0.008859375 0.069106049223
33 1 -0.034846875 -0.00125 0.010040625 0.00356655141537
34 1 -0.034846875 -0.00125 0.011221875 0.0102836202517
35 1 -0.033665625 -0.00125 -0.013584375 2.61122444989e-08
36 1 -0.033665625 -0.00125 -0.012403125 0.0088922782793
37 1 -0.033665625 -0.00125 -0.011221875 0.000918134945657
38 1 -0.033665625 -0.00125 -0.010040625 0.000348435441464
39 1 -0.033665625 -0.00125 -0.008859375 0.00108338266289
40 1 -0.033665625 -0.00125 -0.007678125 1.3031405155e-06
41 1 -0.033665625 -0.00125 -0.006496875 1.29667092252e-09
42 1 -0.033665625 -0.00125 -0.005315625 1.14462279351e-13
43 1 -0.033665625 -0.00125 -0.004134375 0.000220539809255
44 1 -0.033665625 -0.00125 -0.002953125 0.0180450382965
45 1 -0.033665625 -0.00125 -0.001771875 0.0733054181841
46 1 -0.033665625 -0.00125 -0.000590625 0.0972240843852
47 1 -0.033665625 -0.00125 0.000590625 0.1581511109
48 1 -0.033665625 -0.00125 0.001771875 0.266513017839
49 1 -0.033665625 -0.00125 0.002953125 0.0602154322075
50 1 -0.033665625 -0.00125 0.004134375 9.91773903162e-08
51 1 -0.033665625 -0.00125 0.005315625 4.58254722075e-08
52 1 -0.033665625 -0.00125 0.006496875 9.73253081544e-07
53 1 -0.033665625 -0.00125 0.007678125 0.00622637791455
54 1 -0.033665625 -0.00125 0.008859375 0.0479300966403
55 1 -0.033665625 -0.00125 0.010040625 0.00866365677104
56 1 -0.033665625 -0.00125 0.011221875 0.0129251982836
57 1 -0.033665625 -0.00125 0.012403125 0.0825027863097
58 1 -0.033665625 -0.00125 0.013584375 0.000977804747526
59 1 -0.032484375 -0.00125 -0.018309375 1.04734033199e-05
60 1 -0.032484375 -0.00125 -0.017128125 0.000166822853813
61 1 -0.032484375 -0.00125 -0.015946875 0.000144253215728
62 1 -0.032484375 -0.00125 -0.014765625 4.25252333593e-06
63 1 -0.032484375 -0.00125 -0.013584375 5.81139973195e-07
64 1 -0.032484375 -0.00125 -0.012403125 0.00114738399115
65 1 -0.032484375 -0.00125 -0.011221875 0.00165004134508
66 1 -0.032484375 -0.00125 -0.010040625 0.000226302896886
67 1 -0.032484375 -0.00125 -0.008859375 0.000378971761317
68 1 -0.032484375 -0.00125 -0.007678125 1.73676322987e-05
69 1 -0.032484375 -0.00125 -0.006496875 1.50162575628e-09
70 1 -0.032484375 -0.00125 -0.005315625 1.76403679263e-11
71 1 -0.032484375 -0.00125 -0.004134375 3.72302402443e-05
72 1 -0.032484375 -0.00125 -0.002953125 0.00370275587741
73 1 -0.032484375 -0.00125 -0.001771875 0.0547010205087
74 1 -0.032484375 -0.00125 -0.000590625 0.053368567173
75 1 -0.032484375 -0.00125 0.000590625 0.0961217078112
76 1 -0.032484375 -0.00125 0.001771875 0.0822722968643
77 1 -0.032484375 -0.00125 0.002953125 0.0122187039733
78 1 -0.032484375 -0.00125 0.004134375 2.8758114926e-08
79 1 -0.032484375 -0.00125 0.005315625 1.40232933408e-09
80 1 -0.032484375 -0.00125 0.006496875 2.27715065205e-10
81 1 -0.032484375 -0.00125 0.007678125 0.000216445575242
82 1 -0.032484375 -0.00125 0.008859375 0.0147428928324
83 1 -0.032484375 -0.00125 0.010040625 0.0116907887563
84 1 -0.032484375 -0.00125 0.011221875 0.0330270536237
85 1 -0.032484375 -0.00125 0.012403125 0.0274665579216
86 1 -0.032484375 -0.00125 0.013584375 8.54237651935e-06
87 1 -0.032484375 -0.00125 0.014765625 0.00331706004169
88 1 -0.032484375 -0.00125 0.015946875 0.0275555416001
89 1 -0.032484375 -0.00125 0.017128125 0.032126035129
90 1 -0.032484375 -0.00125 0.018309375 0.00668502631448
91 1 -0.031303125 -0.00125 -0.019490625 4.20033127306e-07
92 1 -0.031303125 -0.00125 -0.018309375 8.08546849626e-06
93 1 -0.031303125 -0.00125 -0.017128125 0.000241658145674
94 1 -0.031303125 -0.00125 -0.015946875 7.64433431225e-05
95 1 -0.031303125 -0.00125 -0.014765625 0.000117973749776
96 1 -0.031303125 -0.00125 -0.013584375 4.29435191849e-05
97 1 -0.031303125 -0.00125 -0.012403125 0.000719473538493
98 1 -0.031303125 -0.00125 -0.011221875 0.000731677228821
99 1 -0.031303125 -0.00125 -0.010040625 0.000834893430405
100 1 -0.031303125 -0.00125 -0.008859375 4.42645704435e-05
101 1 -0.031303125 -0.00125 -0.007678125 1.31231174983e-06
102 1 -0.031303125 -0.00125 -0.006496875 2.76486908368e-07
103 1 -0.031303125 -0.00125 -0.005315625 5.4929912696e-07
104 1 -0.031303125 -0.00125 -0.004134375 8.61846435222e-06
105 1 -0.031303125 -0.00125 -0.002953125 0.000411982097674
106 1 -0.031303125 -0.00125 -0.001771875 0.00626580880327
107 1 -0.031303125 -0.00125 -0.000590625 0.0219515307287
108 1 -0.031303125 -0.00125 0.000590625 0.04645319329
109 1 -0.031303125 -0.00125 0.001771875 0.0202181198529
110 1 -0.031303125 -0.00125 0.002953125 0.00187097131231
111 1 -0.031303125 -0.00125 0.004134375 1.55593440806e-05
112 1 -0.031303125 -0.00125 0.005315625 7.41905314476e-07
113 1 -0.031303125 -0.00125 0.006496875 7.65356480605e-09
114 1 -0.031303125 -0.00125 0.007678125 3.41045116534e-05
115 1 -0.031303125 -0.00125 0.008859375 0.000378539086886
116 1 -0.031303125 -0.00125 0.010040625 0.000841803083879
117 1 -0.031303125 -0.00125 0.011221875 0.00315240979266
118 1 -0.031303125 -0.00125 0.012403125 0.00890532427808
119 1 -0.031303125 -0.00125 0.013584375 0.000717361618569
120 1 -0.031303125 -0.00125 0.014765625 0.0108007129803
121 1 -0.031303125 -0.00125 0.015946875 0.0418817092855
122 1 -0.031303125 -0.00125 0.017128125 0.0240807775515
123 1 -0.031303125 -0.00125 0.018309375 0.0035289406476
124 1 -0.031303125 -0.00125 0.019490625 7.80467015212e-05
125 1 -0.030121875 -0.00125 -0.020671875 1.71050325128e-13
126 1 -0.030121875 -0.00125 -0.019490625 3.23877124457e-09
127 1 -0.030121875 -0.00125 -0.018309375 2.28249443475e-05
128 1 -0.030121875 -0.00125 -0.017128125 0.000826652019313
129 1 -0.030121875 -0.00125 -0.015946875 0.00156245223984
130 1 -0.030121875 -0.00125 -0.014765625 0.00130210420997
131 1 -0.030121875 -0.00125 -0.013584375 0.0057940153954
132 1 -0.030121875 -0.00125 -0.012403125 0.00112880766574
133 1 -0.030121875 -0.00125 -0.011221875 0.000108029540365
134 1 -0.030121875 -0.00125 -0.010040625 1.33774143192e-06
135 1 -0.030121875 -0.00125 -0.008859375 1.27820686032e-07
136 1 -0.030121875 -0.00125 -0.007678125 4.89814959913e-08
137 1 -0.030121875 -0.00125 -0.006496875 1.39155170838e-08
138 1 -0.030121875 -0.00125 -0.005315625 1.09910385465e-06
139 1 -0.030121875 -0.00125 -0.004134375 8.74192133403e-08
140 1 -0.030121875 -0.00125 -0.002953125 1.56227356843e-05
141 1 -0.030121875 -0.00125 -0.001771875 0.00115301926882
142 1 -0.030121875 -0.00125 -0.000590625 0.00173547535366
143 1 -0.030121875 -0.00125 0.000590625 0.00536700057088
144 1 -0.030121875 -0.00125 0.001771875 0.002169823447
145 1 -0.030121875 -0.00125 0.002953125 0.000195830211338
146 1 -0.030121875 -0.00125 0.004134375 5.19180949344e-07
147 1 -0.030121875 -0.00125 0.005315625 4.46024621791e-07
148 1 -0.030121875 -0.00125 0.006496875 9.6425359345e-09
149 1 -0.030121875 -0.00125 0.007678125 5.76251984443e-08
150 1 -0.030121875 -0.00125 0.008859375 3.36332099245e-07
151 1 -0.030121875 -0.00125 0.010040625 1.58293784335e-05
152 1 -0.030121875 -0.00125 0.011221875 1.25861841288e-05
153 1 -0.030121875 -0.00125 0.012403125 0.00176680143901
154 1 -0.030121875 -0.00125 0.013584375 0.0015368811255
155 1 -0.030121875 -0.00125 0.014765625 0.0072336760169
156 1 -0.030121875 -0.00125 0.015946875 0.0315883713927
157 1 -0.030121875 -0.00125 0.017128125 0.0346211230825
158 1 -0.030121875 -0.00125 0.018309375 0.0142099653715
159 1 -0.030121875 -0.00125 0.019490625 0.000627342667139
160 1 -0.030121875 -0.00125 0.020671875 9.73744495177e-07
161 1 -0.028940625 -0.00125 -0.021853125 2.80719865684e-06
162 1 -0.028940625 -0.00125 -0.020671875 4.0704018219e-08
163 1 -0.028940625 -0.00125 -0.019490625 9.27833615671e-07
164 1 -0.028940625 -0.00125 -0.018309375 9.80754502778e-05
165 1 -0.028940625 -0.00125 -0.017128125 0.00249552752211
166 1 -0.028940625 -0.00125 -0.015946875 0.00610493437168
167 1 -0.028940625 -0.00125 -0.014765625 0.0148067358071
168 1 -0.028940625 -0.00125 -0.013584375 0.00289574934459
169 1 -0.028940625 -0.00125 -0.012403125 0.000193827877117
170 1 -0.028940625 -0.00125 -0.011221875 2.28265392158e-05
171 1 -0.028940625 -0.00125 -0.010040625 5.1234499704e-08
172 1 -0.028940625 -0.00125 -0.008859375 6.25345642028e-09
173 1 -0.028940625 -0.00125 -0.007678125 1.99071950597e-08
174 1 -0.028940625 -0.00125 -0.006496875 7.24766067479e-07
175 1 -0.028940625 -0.00125 -0.005315625 1.2982058236e-07
176 1 -0.028940625 -0.00125 -0.004134375 7.54427482303e-06
177 1 -0.028940625 -0.00125 -0.002953125 2.2087943313e-05
178 1 -0.028940625 -0.00125 -0.001771875 5.5441738673e-05
179 1 -0.028940625 -0.00125 -0.000590625 0.000649385832267
180 1 -0.028940625 -0.00125 0.000590625 1.34421841059e-05
181 1 -0.028940625 -0.00125 0.001771875 6.05490959161e-06
182 1 -0.028940625 -0.00125 0.002953125 9.42539125452e-06
183 1 -0.028940625 -0.00125 0.004134375 5.40427530363e-06
184 1 -0.028940625 -0.00125 0.005315625 2.44996657404e-07
185 1 -0.028940625 -0.00125 0.006496875 1.50309197381e-07
186 1 -0.028940625 -0.00125 0.007678125 7.50476066054e-10
187 1 -0.028940625 -0.00125 0.008859375 3.33002104263e-11
188 1 -0.028940625 -0.00125 0.010040625 2.14070747722e-09
189 1 -0.028940625 -0.00125 0.011221875 5.56262728856e-07
190 1 -0.028940625 -0.00125 0.012403125 1.66058133288e-05
191 1 -0.028940625 -0.00125 0.013584375 3.79663515316e-05
192 1 -0.028940625 -0.00125 0.014765625 0.00208866659405
193 1 -0.028940625 -0.00125 0.015946875 0.0325754175382
194 1 -0.028940625 -0.00125 0.017128125 0.0438680327395
195 1 -0.028940625 -0.00125 0.018309375 0.0409814630449
196 1 -0.028940625 -0.00125 0.019490625 0.000936337071035
197 1 -0.028940625 -0.00125 0.020671875 3.51312131649e-05
198 1 -0.028940625 -0.00125 0.021853125 0.000229500014273
199 1 -0.027759375 -0.00125 -0.024215625 1.54386045422e-10
200 1 -0.027759375 -0.00125 -0.023034375 1.38362170622e-07
201 1 -0.027759375 -0.00125 -0.021853125 8.76819066378e-05
202 1 -0.027759375 -0.00125 -0.020671875 2.01250455064e-09
203 1 -0.027759375 -0.00125 -0.019490625 9.54662444509e-08
204 1 -0.027759375 -0.00125 -0.018309375 0.000250876013072
205 1 -0.027759375 -0.00125 -0.017128125 0.0123016521026
206 1 -0.027759375 -0.00125 -0.015946875 0.0180844784131
207 1 -0.027759375 -0.00125 -0.014765625 0.0224717405614
208 1 -0.027759375 -0.00125 -0.013584375 0.00783428409149
209 1 -0.027759375 -0.00125 -0.012403125 0.00112479920526
210 1 -0.027759375 -0.00125 -0.011221875 8.87337773594e-05
211 1 -0.027759375 -0.00125 -0.010040625 6.02219142419e-07
212 1 -0.027759375 -0.00125 -0.008859375 1.17720145347e-08
213 1 -0.027759375 -0.00125 -0.007678125 1.62912850174e-07
214 1 -0.027759375 -0.00125 -0.006496875 6.41724539999e-07
215 1 -0.027759375 -0.00125 -0.005315625 2.68833117258e-06
216 1 -0.027759375 -0.00125 -0.004134375 8.47446811945e-05
217 1 -0.027759375 -0.00125 -0.002953125 0.000138867037464
218 1 -0.027759375 -0.00125 -0.001771875 0.000511114189394
219 1 -0.027759375 -0.00125 -0.000590625 0.00437992327743
220 1 -0.027759375 -0.00125 0.000590625 0.00197679769782
221 1 -0.027759375 -0.00125 0.001771875 0.000804480682336
222 1 -0.027759375 -0.00125 0.002953125 0.00036392273717
223 1 -0.027759375 -0.00125 0.004134375 2.40889542768e-06
224 1 -0.027759375 -0.00125 0.005315625 6.25278351492e-07
225 1 -0.027759375 -0.00125 0.006496875 1.2591415036e-08
226 1 -0.027759375 -0.00125 0.007678125 1.23345882777e-09
227 1 -0.027759375 -0.00125 0.008859375 1.08971667944e-09
228 1 -0.027759375 -0.00125 0.010040625 6.51226547598e-11
229 1 -0.027759375 -0.00125 0.011221875 1.05145349267e-09
230 1 -0.027759375 -0.00125 0.012403125 3.56966472554e-06
231 1 -0.027759375 -0.00125 0.013584375 2.36357333311e-05
232 1 -0.027759375 -0.00125 0.014765625 0.00483752793408
233 1 -0.027759375 -0.00125 0.015946875 0.0145380606282
234 1 -0.027759375 -0.00125 0.017128125 0.0394916823294
235 1 -0.027759375 -0.00125 0.018309375 0.0413747728161
236 1 -0.027759375 -0.00125 0.019490625 0.000938805538128
237 1 -0.027759375 -0.00125 0.020671875 7.92166186544e-05
238 1 -0.027759375 -0.00125 0.021853125 5.1189691918e-05
239 1 -0.027759375 -0.00125 0.023034375 5.78709735611e-08
240 1 -0.027759375 -0.00125 0.024215625 9.38132966345e-14
241 1 -0.026578125 -0.00125 -0.026578125 3.31058968758e-10
242 1 -0.026578125 -0.00125 -0.025396875 5.56625911621e-11
243 1 -0.026578125 -0.00125 -0.024215625 1.13814681485e-11
244 1 -0.026578125 -0.00125 -0.023034375 1.35176174139e-10
245 1 -0.026578125 -0.00125 -0.021853125 2.36380412715e-08
246 1 -0.026578125 -0.00125 -0.020671875 2.04007606299e-06
247 1 -0.026578125 -0.00125 -0.019490625 2.56529817961e-05
248 1 -0.026578125 -0.00125 -0.018309375 0.000601513099796
249 1 -0.026578125 -0.00125 -0.017128125 0.0104763990379
250 1 -0.026578125 -0.00125 -0.015946875 0.0271311430988
251 1 -0.026578125 -0.00125 -0.014765625 0.0114358860871
252 1 -0.026578125 -0.00125 -0.013584375 0.0124688148902
253 1 -0.026578125 -0.00125 -0.012403125 0.000646349786736
254 1 -0.026578125 -0.00125 -0.011221875 0.000192241884576
255 1 -0.026578125 -0.00125 -0.010040625 2.20822089129e-07
256 1 -0.026578125 -0.00125 -0.008859375 1.28840150028e-06
257 1 -0.026578125 -0.00125 -0.007678125 1.10546942471e-06
258 1 -0.026578125 -0.00125 -0.006496875 1.6177985114e-05
259 1 -0.026578125 -0.00125 -0.005315625 0.000383303577341
260 1 -0.026578125 -0.00125 -0.004134375 0.00363286452177
261 1 -0.026578125 -0.00125 -0.002953125 0.00426031734229
262 1 -0.026578125 -0.00125 -0.001771875 0.00759721467264
263 1 -0.026578125 -0.00125 -0.000590625 0.0146592651414
264 1 -0.026578125 -0.00125 0.000590625 0.0132814585802
265 1 -0.026578125 -0.00125 0.001771875 0.00583763312445
266 1 -0.026578125 -0.00125 0.002953125 0.00790325375592
267 1 -0.026578125 -0.00125 0.004134375 0.000616865279362
268 1 -0.026578125 -0.00125 0.005315625 0.000238631136313
269 1 -0.026578125 -0.00125 0.006496875 4.74537787458e-09
270 1 -0.026578125 -0.00125 0.007678125 8.17189881029e-09
271 1 -0.026578125 -0.00125 0.008859375 1.08323039317e-09
272 1 -0.026578125 -0.00125 0.010040625 3.6626418158e-09
273 1 -0.026578125 -0.00125 0.011221875 1.54109013612e-08
274 1 -0.026578125 -0.00125 0.012403125 1.15508547685e-07
275 1 -0.026578125 -0.00125 0.013584375 9.26452867978e-05
276 1 -0.026578125 -0.00125 0.014765625 0.00532615966479
277 1 -0.026578125 -0.00125 0.015946875 0.0604072724388
278 1 -0.026578125 -0.00125 0.017128125 0.0908137760972
279 1 -0.026578125 -0.00125 0.018309375 0.0647015245909
280 1 -0.026578125 -0.00125 0.019490625 0.00313937959715
281 1 -0.026578125 -0.00125 0.020671875 0.000308741397719
282 1 -0.026578125 -0.00125 0.021853125 3.07362271439e-06
283 1 -0.026578125 -0.00125 0.023034375 2.85508789955e-11
284 1 -0.026578125 -0.00125 0.024215625 2.03528031314e-10
285 1 -0.026578125 -0.00125 0.025396875 3.05666479698e-09
286 1 -0.026578125 -0.00125 0.026578125 5.77346357588e-09
287 1 -0.025396875 -0.00125 -0.026578125 4.22332503444e-17
288 1 -0.025396875 -0.00125 -0.025396875 3.80938508575e-11
289 1 -0.025396875 -0.00125 -0.024215625 9.89939010149e-09
290 1 -0.025396875 -0.00125 -0.023034375 1.43662036039e-08
291 1 -0.025396875 -0.00125 -0.021853125 2.43398508783e-06
292 1 -0.025396875 -0.00125 -0.020671875 4.45249878525e-05
293 1 -0.025396875 -0.00125 -0.019490625 0.000202824697136
294 1 -0.025396875 -0.00125 -0.018309375 0.00343601338506
295 1 -0.025396875 -0.00125 -0.017128125 0.0161327761911
296 1 -0.025396875 -0.00125 -0.015946875 0.0231967103643
297 1 -0.025396875 -0.00125 -0.014765625 0.0342189575124
298 1 -0.025396875 -0.00125 -0.013584375 0.0492781168475
299 1 -0.025396875 -0.00125 -0.012403125 0.00532557460248
300 1 -0.025396875 -0.00125 -0.011221875 0.00489306521163
301 1 -0.025396875 -0.00125 -0.010040625 0.00022066756607
302 1 -0.025396875 -0.00125 -0.008859375 9.68437941978e-05
303 1 -0.025396875 -0.00125 -0.007678125 6.80448961032e-07
304 1 -0.025396875 -0.00125 -0.006496875 0.000293406024351
305 1 -0.025396875 -0.00125 -0.005315625 0.00246888040966
306 1 -0.025396875 -0.00125 -0.004134375 0.00650559439321
307 1 -0.025396875 -0.00125 -0.002953125 0.00293043204767
308 1 -0.025396875 -0.00125 -0.001771875 0.0016277681084
309 1 -0.025396875 -0.00125 -0.000590625 0.0110547783144
310 1 -0.025396875 -0.00125 0.000590625 0.00955606095541
311 1 -0.025396875 -0.00125 0.001771875 0.00821191323778
312 1 -0.025396875 -0.00125 0.002953125 0.0044568218925
313 1 -0.025396875 -0.00125 0.004134375 0.00182559460263
314 1 -0.025396875 -0.00125 0.005315625 0.00543839305728
315 1 -0.025396875 -0.00125 0.006496875 0.000228764364172
316 1 -0.025396875 -0.00125 0.007678125 4.32274786175e-05
317 1 -0.025396875 -0.00125 0.008859375 3.08997688443e-06
318 1 -0.025396875 -0.00125 0.010040625 1.25659454561e-10
319 1 -0.025396875 -0.00125 0.011221875 2.07234208653e-10
320 1 -0.025396875 -0.00125 0.012403125 2.00528695383e-10
321 1 -0.025396875 -0.00125 0.013584375 1.42478965634e-06
322 1 -0.025396875 -0.00125 0.014765625 0.00189592357566
323 1 -0.025396875 -0.00125 0.015946875 0.076072571168
324 1 -0.025396875 -0.00125 0.017128125 0.0855703357771
325 1 -0.025396875 -0.00125 0.018309375 0.0367969168568
326 1 -0.025396875 -0.00125 0.019490625 0.00260019030972
327 1 -0.025396875 -0.00125 0.020671875 0.000152835306905
328 1 -0.025396875 -0.00125 0.021853125 4.57381003647e-05
329 1 -0.025396875 -0.00125 0.023034375 1.23380508387e-05
330 1 -0.025396875 -0.00125 0.024215625 7.63694413804e-07
331 1 -0.025396875 -0.00125 0.025396875 5.46397512503e-05
332 1 -0.025396875 -0.00125 0.026578125 3.22315550276e-15
333 1 -0.024215625 -0.00125 -0.027759375 1.17716816126e-12
334 1 -0.024215625 -0.00125 -0.026578125 6.32837959546e-09
335 1 -0.024215625 -0.00125 -0.025396875 1.19651921028e-07
336 1 -0.024215625 -0.00125 -0.024215625 0.000146980303004
337 1 -0.024215625 -0.00125 -0.023034375 0.000528746288899
338 1 -0.024215625 -0.00125 -0.021853125 0.000990436048016
339 1 -0.024215625 -0.00125 -0.020671875 0.00138946996836
340 1 -0.024215625 -0.00125 -0.019490625 0.00195152014114
341 1 -0.024215625 -0.00125 -0.018309375 0.00280878149429
342 1 -0.024215625 -0.00125 -0.017128125 0.0106980870725
343 1 -0.024215625 -0.00125 -0.015946875 0.0300702377051
344 1 -0.024215625 -0.00125 -0.014765625 0.0307957538009
345 1 -0.024215625 -0.00125 -0.013584375 0.0127981812434
346 1 -0.024215625 -0.00125 -0.012403125 0.00494882415149
347 1 -0.024215625 -0.00125 -0.011221875 0.00342585696762
348 1 -0.024215625 -0.00125 -0.010040625 0.00113145729467
349 1 -0.024215625 -0.00125 -0.008859375 0.000586609323517
350 1 -0.024215625 -0.00125 -0.007678125 4.55751340844e-06
351 1 -0.024215625 -0.00125 -0.006496875 0.000150839838294
352 1 -0.024215625 -0.00125 -0.005315625 0.00372830165691
353 1 -0.024215625 -0.00125 -0.004134375 0.00239435202621
354 1 -0.024215625 -0.00125 -0.002953125 0.00441554509954
355 1 -0.024215625 -0.00125 -0.001771875 0.00631364340199
356 1 -0.024215625 -0.00125 -0.000590625 0.0151631196374
357 1 -0.024215625 -0.00125 0.000590625 0.0138731384046
358 1 -0.024215625 -0.00125 0.001771875 0.00853801927105
359 1 -0.024215625 -0.00125 0.002953125 0.00114447515101
360 1 -0.024215625 -0.00125 0.004134375 0.00199509580299
361 1 -0.024215625 -0.00125 0.005315625 0.00197316141696
362 1 -0.024215625 -0.00125 0.006496875 0.00149382660654
363 1 -0.024215625 -0.00125 0.007678125 0.000423341252323
364 1 -0.024215625 -0.00125 0.008859375 9.95052963152e-06
365 1 -0.024215625 -0.00125 0.010040625 3.52100635641e-06
366 1 -0.024215625 -0.00125 0.011221875 1.84918488829e-08
367 1 -0.024215625 -0.00125 0.012403125 1.693479437e-07
368 1 -0.024215625 -0.00125 0.013584375 6.16077580591e-05
369 1 -0.024215625 -0.00125 0.014765625 0.00484984210592
370 1 -0.024215625 -0.00125 0.015946875 0.0585089114714
371 1 -0.024215625 -0.00125 0.017128125 0.0717175593191
372 1 -0.024215625 -0.00125 0.018309375 0.0387004409715
373 1 -0.024215625 -0.00125 0.019490625 0.00565409881071
374 1 -0.024215625 -0.00125 0.020671875 0.00138122787109
375 1 -0.024215625 -0.00125 0.021853125 0.000904745615506
376 1 -0.024215625 -0.00125 0.023034375 9.79277312231e-05
377 1 -0.024215625 -0.00125 0.024215625 2.42661144796e-06
378 1 -0.024215625 -0.00125 0.025396875 2.83295602098e-05
379 1 -0.024215625 -0.00125 0.026578125 4.95122658432e-07
380 1 -0.024215625 -0.00125 0.027759375 1.99316950892e-09
381 1 -0.023034375 -0.00125 -0.027759375 1.39365070823e-10
382 1 -0.023034375 -0.00125 -0.026578125 1.31626347822e-06
383 1 -0.023034375 -0.00125 -0.025396875 0.000510334892551
384 1 -0.023034375 -0.00125 -0.024215625 0.00050370678492
385 1 -0.023034375 -0.00125 -0.023034375 0.00448321748883
386 1 -0.023034375 -0.00125 -0.021853125 0.000918584164732
387 1 -0.023034375 -0.00125 -0.020671875 0.00409849522281
388 1 -0.023034375 -0.00125 -0.019490625 0.0038952004969
389 1 -0.023034375 -0.00125 -0.018309375 0.0039349623841
390 1 -0.023034375 -0.00125 -0.017128125 0.0103152830586
391 1 -0.023034375 -0.00125 -0.015946875 0.0369989615262
392 1 -0.023034375 -0.00125 -0.014765625 0.0205996081523
393 1 -0.023034375 -0.00125 -0.013584375 0.0408173872852
394 1 -0.023034375 -0.00125 -0.012403125 0.0114684669783
395 1 -0.023034375 -0.00125 -0.011221875 0.011343451035
396 1 -0.023034375 -0.00125 -0.010040625 0.00806203324212
397 1 -0.023034375 -0.00125 -0.008859375 0.00381040392332
398 1 -0.023034375 -0.00125 -0.007678125 0.0010441964502
399 1 -0.023034375 -0.00125 -0.006496875 0.00108336471777
400 1 -0.023034375 -0.00125 -0.005315625 0.00606731784755
401 1 -0.023034375 -0.00125 -0.004134375 0.00263778751065
402 1 -0.023034375 -0.00125 -0.002953125 0.0158084877539
403 1 -0.023034375 -0.00125 -0.001771875 0.0343641908353
404 1 -0.023034375 -0.00125 -0.000590625 0.0361506691477
405 1 -0.023034375 -0.00125 0.000590625 0.0467029878286
406 1 -0.023034375 -0.00125 0.001771875 0.0236944324323
407 1 -0.023034375 -0.00125 0.002953125 0.0241580160961
408 1 -0.023034375 -0.00125 0.004134375 0.0174011364314
409 1 -0.023034375 -0.00125 0.005315625 0.021857306035
410 1 -0.023034375 -0.00125 0.006496875 0.0126695982413
411 1 -0.023034375 -0.00125 0.007678125 0.00403179988818
412 1 -0.023034375 -0.00125 0.008859375 0.00042498074937
413 1 -0.023034375 -0.00125 0.010040625 9.49201146932e-05
414 1 -0.023034375 -0.00125 0.011221875 1.61854476799e-05
415 1 -0.023034375 -0.00125 0.012403125 4.20410064622e-05
416 1 -0.023034375 -0.00125 0.013584375 0.000990188163276
417 1 -0.023034375 -0.00125 0.014765625 0.0229389982918
418 1 -0.023034375 -0.00125 0.015946875 0.0768193278227
419 1 -0.023034375 -0.00125 0.017128125 0.0622922963025
420 1 -0.023034375 -0.00125 0.018309375 0.0322447039
421 1 -0.023034375 -0.00125 0.019490625 0.010860021644
422 1 -0.023034375 -0.00125 0.020671875 0.00822176194888
423 1 -0.023034375 -0.00125 0.021853125 0.00854431006903
424 1 -0.023034375 -0.00125 0.023034375 0.00266127328344
425 1 -0.023034375 -0.00125 0.024215625 0.000710676502891
426 1 -0.023034375 -0.00125 0.025396875 0.000581050387042
427 1 -0.023034375 -0.00125 0.026578125 6.11726919727e-06
428 1 -0.023034375 -0.00125 0.027759375 8.06617560786e-07
429 1 -0.021853125 -0.00125 -0.028940625 1.06048440796e-05
430 1 -0.021853125 -0.00125 -0.027759375 3.31688967541e-05
431 1 -0.021853125 -0.00125 -0.026578125 1.502487005e-06
432 1 -0.021853125 -0.00125 -0.025396875 0.000157129840564
433 1 -0.021853125 -0.00125 -0.024215625 0.00254772324853
434 1 -0.021853125 -0.00125 -0.023034375 0.0012315311198
435 1 -0.021853125 -0.00125 -0.021853125 0.00307749553674
436 1 -0.021853125 -0.00125 -0.020671875 0.00586225444939
437 1 -0.021853125 -0.00125 -0.019490625 0.00694299713545
438 1 -0.021853125 -0.00125 -0.018309375 0.011912261854
439 1 -0.021853125 -0.00125 -0.017128125 0.0131306442924
440 1 -0.021853125 -0.00125 -0.015946875 0.0339344021217
441 1 -0.021853125 -0.00125 -0.014765625 0.0455815102524
442 1 -0.021853125 -0.00125 -0.013584375 0.0527384113081
443 1 -0.021853125 -0.00125 -0.012403125 0.0541125131765
444 1 -0.021853125 -0.00125 -0.011221875 0.0317776136202
445 1 -0.021853125 -0.00125 -0.010040625 0.0188103917433
446 1 -0.021853125 -0.00125 -0.008859375 0.0101671872137
447 1 -0.021853125 -0.00125 -0.007678125 0.0120579977433
448 1 -0.021853125 -0.00125 -0.006496875 0.0075088288322
449 1 -0.021853125 -0.00125 -0.005315625 0.0244233497193
450 1 -0.021853125 -0.00125 -0.004134375 0.0422958546803
451 1 -0.021853125 -0.00125 -0.002953125 0.0614358806636
452 1 -0.021853125 -0.00125 -0.001771875 0.0497039727777
453 1 -0.021853125 -0.00125 -0.000590625 0.0497887160482
454 1 -0.021853125 -0.00125 0.000590625 0.0541447522691
455 1 -0.021853125 -0.00125 0.001771875 0.0419224635988
456 1 -0.021853125 -0.00125 0.002953125 0.0761905042963
457 1 -0.021853125 -0.00125 0.004134375 0.0697129048547
458 1 -0.021853125 -0.00125 0.005315625 0.0593864455313
459 1 -0.021853125 -0.00125 0.006496875 0.0188761177883
460 1 -0.021853125 -0.00125 0.007678125 0.00906020915723
461 1 -0.021853125 -0.00125 0.008859375 0.00453921779269
462 1 -0.021853125 -0.00125 0.010040625 0.00172298644045
463 1 -0.021853125 -0.00125 0.011221875 0.00315829189082
464 1 -0.021853125 -0.00125 0.012403125 0.00536745186702
465 1 -0.021853125 -0.00125 0.013584375 0.00975767375903
466 1 -0.021853125 -0.00125 0.014765625 0.0587916430873
467 1 -0.021853125 -0.00125 0.015946875 0.152510246634
468 1 -0.021853125 -0.00125 0.017128125 0.0960108878602
469 1 -0.021853125 -0.00125 0.018309375 0.0344653127801
470 1 -0.021853125 -0.00125 0.019490625 0.0175680493065
471 1 -0.021853125 -0.00125 0.020671875 0.011098174573
472 1 -0.021853125 -0.00125 0.021853125 0.0153212354159
473 1 -0.021853125 -0.00125 0.023034375 0.00762861817103
474 1 -0.021853125 -0.00125 0.024215625 0.00233696004403
475 1 -0.021853125 -0.00125 0.025396875 0.000122068283519
476 1 -0.021853125 -0.00125 0.026578125 2.8908359586e-06
477 1 -0.021853125 -0.00125 0.027759375 3.69270830584e-05
478 1 -0.021853125 -0.00125 0.028940625 4.1057503771e-05
479 1 -0.020671875 -0.00125 -0.030121875 1.32610705119e-08
480 1 -0.020671875 -0.00125 -0.028940625 1.03760183882e-07
481 1 -0.020671875 -0.00125 -0.027759375 3.32634580406e-05
482 1 -0.020671875 -0.00125 -0.026578125 2.98193983626e-05
483 1 -0.020671875 -0.00125 -0.025396875 0.000196710312944
484 1 -0.020671875 -0.00125 -0.024215625 0.000703407031694
485 1 -0.020671875 -0.00125 -0.023034375 0.00716923624142
486 1 -0.020671875 -0.00125 -0.021853125 0.00500527527295
487 1 -0.020671875 -0.00125 -0.020671875 0.0159827302049
488 1 -0.020671875 -0.00125 -0.019490625 0.0348441579805
489 1 -0.020671875 -0.00125 -0.018309375 0.022416464287
490 1 -0.020671875 -0.00125 -0.017128125 0.0369209571268
491 1 -0.020671875 -0.00125 -0.015946875 0.0546763926765
492 1 -0.020671875 -0.00125 -0.014765625 0.0628015002955
493 1 -0.020671875 -0.00125 -0.013584375 0.0961999007594
494 1 -0.020671875 -0.00125 -0.012403125 0.0615742219636
495 1 -0.020671875 -0.00125 -0.011221875 0.0967141203973
496 1 -0.020671875 -0.00125 -0.010040625 0.0642064532408
497 1 -0.020671875 -0.00125 -0.008859375 0.0474317905455
498 1 -0.020671875 -0.00125 -0.007678125 0.0458388636257
499 1 -0.020671875 -0.00125 -0.006496875 0.0334601976606
500 1 -0.020671875 -0.00125 -0.005315625 0.0655219083181
501 1 -0.020671875 -0.00125 -0.004134375 0.0969811527131
502 1 -0.020671875 -0.00125 -0.002953125 0.126751320878
503 1 -0.020671875 -0.00125 -0.001771875 0.0989119738715
504 1 -0.020671875 -0.00125 -0.000590625 0.0878268899604
505 1 -0.020671875 -0.00125 0.000590625 0.0989501630479
506 1 -0.020671875 -0.00125 0.001771875 0.102914886055
507 1 -0.020671875 -0.00125 0.002953125 0.109737538391
508 1 -0.020671875 -0.00125 0.004134375 0.115523972092
509 1 -0.020671875 -0.00125 0.005315625 0.119337028459
510 1 -0.020671875 -0.00125 0.006496875 0.0567055909456
511 1 -0.020671875 -0.00125 0.007678125 0.0547988030358
512 1 -0.020671875 -0.00125 0.008859375 0.0231341580146
513 1 -0.020671875 -0.00125 0.010040625 0.0107351451369
514 1 -0.020671875 -0.00125 0.011221875 0.0154536388534
515 1 -0.020671875 -0.00125 0.012403125 0.0462649650654
516 1 -0.020671875 -0.00125 0.013584375 0.0782269652829
517 1 -0.020671875 -0.00125 0.014765625 0.134891647086