ITEM: TIMESTEP
0
ITEM: NUMBER OF ATOMS
3080
ITEM: BOX BOUNDS ss ss ss
-3.7007399999999996e-02 3.7007399999999996e-02
-2.0002499999999999e-03 2.5000000000000004e-07
-3.7007399999999996e-02 3.7007399999999996e-02
ITEM: ATOMS id type x y z c_1
0 1 -0.037209375 -0.00125 -0.000590625 3.29659111648e-05
1 1 -0.036028125 -0.00125 -0.007678125 0.0
2 1 -0.036028125 -0.00125 -0.006496875 0.0
3 1 -0.036028125 -0.00125 -0.005315625 0.0
4 1 -0.036028125 -0.00125 -0.004134375 0.0
5 1 -0.036028125 -0.00125 -0.002953125 0.0
6 1 -0.036028125 -0.00125 -0.001771875 0.0
7 1 -0.036028125 -0.00125 -0.000590625 0.0
8 1 -0.036028125 -0.00125 0.000590625 0.0
9 1 -0.036028125 -0.00125 0.001771875 0.0
10 1 -0.036028125 -0.00125 0.002953125 0.0
11 1 -0.036028125 -0.00125 0.004134375 0.0
12 1 -0.036028125 -0.00125 0.005315625 0.0
13 1 -0.036028125 -0.00125 0.006496875 0.0
14 1 -0.036028125 -0.00125 0.007678125 0.0
15 1 -0.034846875 -0.00125 -0.011221875 0.0
16 1 -0.034846875 -0.00125 -0.010040625 0.0
17 1 -0.034846875 -0.00125 -0.008859375 0.0
18 1 -0.034846875 -0.00125 -0.007678125 0.0
19 1 -0.034846875 -0.00125 -0.006496875 0.0
20 1 -0.034846875 -0.00125 -0.005315625 0.0
21 1 -0.034846875 -0.00125 -0.004134375 0.0
22 1 -0.034846875 -0.00125 -0.002953125 0.0
23 1 -0.034846875 -0.00125 -0.001771875 0.0
24 1 -0.034846875 -0.00125 -0.000590625 0.0
25 1 -0.034846875 -0.00125 0.000590625 0.0
26 1 -0.034846875 -0.00125 0.001771875 0.0
27 1 -0.034846875 -0.00125 0.002953125 0.0
28 1 -0.034846875 -0.00125 0.004134375 0.0
29 1 -0.034846875 -0.00125 0.005315625 0.0
30 1 -0.034846875 -0.00125 0.006496875 0.0
31 1 -0.034846875 -0.00125 0.007678125 0.0
32 1 -0.034846875 -0.00125 0.008859375 9.19582147583e-84
33 1 -0.034846875 -0.00125 0.010040625 0.0
34 1 -0.034846875 -0.00125 0.011221875 7.57154318133e-107
35 1 -0.033665625 -0.00125 -0.013584375 0.0
36 1 -0.033665625 -0.00125 -0.012403125 1.44963062955e-247
37 1 -0.033665625 -0.00125 -0.011221875 0.0
38 1 -0.033665625 -0.00125 -0.010040625 0.0
39 1 -0.033665625 -0.00125 -0.008859375 0.0
40 1 -0.033665625 -0.00125 -0.007678125 0.0
41 1 -0.033665625 -0.00125 -0.006496875 0.0
42 1 -0.033665625 -0.00125 -0.005315625 0.0
43 1 -0.033665625 -0.00125 -0.004134375 0.0
44 1 -0.033665625 -0.00125 -0.002953125 0.0
45 1 -0.033665625 -0.00125 -0.001771875 0.0
46 1 -0.033665625 -0.00125 -0.000590625 0.0
47 1 -0.033665625 -0.00125 0.000590625 0.0
48 1 -0.033665625 -0.00125 0.001771875 0.0
49 1 -0.033665625 -0.00125 0.002953125 0.0
50 1 -0.033665625 -0.00125 0.004134375 0.0
51 1 -0.033665625 -0.00125 0.005315625 0.0
52 1 -0.033665625 -0.00125 0.006496875 0.0
53 1 -0.033665625 -0.00125 0.007678125 0.0
54 1 -0.033665625 -0.00125 0.008859375 1.02478531464e-157
55 1 -0.033665625 -0.00125 0.010040625 2.99974390778e-165
56 1 -0.033665625 -0.00125 0.011221875 2.51608522504e-58
57 1 -0.033665625 -0.00125 0.012403125 1.78646468962e-22
58 1 -0.033665625 -0.00125 0.013584375 0.0
59 1 -0.032484375 -0.00125 -0.018309375 0.0
60 1 -0.032484375 -0.00125 -0.017128125 0.0
61 1 -0.032484375 -0.00125 -0.015946875 3.89303152836e-182
62 1 -0.032484375 -0.00125 -0.014765625 1.69652375277e-208
63 1 -0.032484375 -0.00125 -0.013584375 6.12177841809e-305
64 1 -0.032484375 -0.00125 -0.012403125 2.17559967783e-280
65 1 -0.032484375 -0.00125 -0.011221875 0.0
66 1 -0.032484375 -0.00125 -0.010040625 0.0
67 1 -0.032484375 -0.00125 -0.008859375 0.0
68 1 -0.032484375 -0.00125 -0.007678125 0.0
69 1 -0.032484375 -0.00125 -0.006496875 0.0
70 1 -0.032484375 -0.00125 -0.005315625 0.0
71 1 -0.032484375 -0.00125 -0.004134375 0.0
72 1 -0.032484375 -0.00125 -0.002953125 0.0
73 1 -0.032484375 -0.00125 -0.001771875 0.0
74 1 -0.032484375 -0.00125 -0.000590625 0.0
75 1 -0.032484375 -0.00125 0.000590625 0.0
76 1 -0.032484375 -0.00125 0.001771875 0.0
77 1 -0.032484375 -0.00125 0.002953125 0.0
78 1 -0.032484375 -0.00125 0.004134375 0.0
79 1 -0.032484375 -0.00125 0.005315625 0.0
80 1 -0.032484375 -0.00125 0.006496875 0.0
81 1 -0.032484375 -0.00125 0.007678125 0.0
82 1 -0.032484375 -0.00125 0.008859375 0.0
83 1 -0.032484375 -0.00125 0.010040625 8.20473265303e-249
84 1 -0.032484375 -0.00125 0.011221875 2.3135603546e-80
85 1 -0.032484375 -0.00125 0.012403125 6.06855837962e-131
86 1 -0.032484375 -0.00125 0.013584375 0.0
87 1 -0.032484375 -0.00125 0.014765625 1.02598845102e-137
88 1 -0.032484375 -0.00125 0.015946875 9.92960115761e-163
89 1 -0.032484375 -0.00125 0.017128125 5.36826777743e-91
90 1 -0.032484375 -0.00125 0.018309375 1.61094380537e-101
91 1 -0.031303125 -0.00125 -0.019490625 0.0
92 1 -0.031303125 -0.00125 -0.018309375 0.0
93 1 -0.031303125 -0.00125 -0.017128125 0.0
94 1 -0.031303125 -0.00125 -0.015946875 0.0
95 1 -0.031303125 -0.00125 -0.014765625 3.12934880177e-142
96 1 -0.031303125 -0.00125 -0.013584375 2.76823849207e-218
97 1 -0.031303125 -0.00125 -0.012403125 4.7454085997e-258
98 1 -0.031303125 -0.00125 -0.011221875 0.0
99 1 -0.031303125 -0.00125 -0.010040625 0.0
100 1 -0.031303125 -0.00125 -0.008859375 0.0
101 1 -0.031303125 -0.00125 -0.007678125 0.0
102 1 -0.031303125 -0.00125 -0.006496875 0.0
103 1 -0.031303125 -0.00125 -0.005315625 0.0
104 1 -0.031303125 -0.00125 -0.004134375 0.0
105 1 -0.031303125 -0.00125 -0.002953125 0.0
106 1 -0.031303125 -0.00125 -0.001771875 2.69578355008e-292
107 1 -0.031303125 -0.00125 -0.000590625 0.0
108 1 -0.031303125 -0.00125 0.000590625 0.0
109 1 -0.031303125 -0.00125 0.001771875 0.0
110 1 -0.031303125 -0.00125 0.002953125 0.0
111 1 -0.031303125 -0.00125 0.004134375 2.31515810031e-306
112 1 -0.031303125 -0.00125 0.005315625 5.91384065368e-160
113 1 -0.031303125 -0.00125 0.006496875 2.26104734364e-165
114 1 -0.031303125 -0.00125 0.007678125 2.51520113262e-252
115 1 -0.031303125 -0.00125 0.008859375 0.0
116 1 -0.031303125 -0.00125 0.010040625 0.0
117 1 -0.031303125 -0.00125 0.011221875 0.0
118 1 -0.031303125 -0.00125 0.012403125 1.24565484519e-299
119 1 -0.031303125 -0.00125 0.013584375 0.0
120 1 -0.031303125 -0.00125 0.014765625 0.0
121 1 -0.031303125 -0.00125 0.015946875 0.0
122 1 -0.031303125 -0.00125 0.017128125 0.0
123 1 -0.031303125 -0.00125 0.018309375 3.6686886569e-186
124 1 -0.031303125 -0.00125 0.019490625 1.09008552384e-243
125 1 -0.030121875 -0.00125 -0.020671875 0.0
126 1 -0.030121875 -0.00125 -0.019490625 0.0
127 1 -0.030121875 -0.00125 -0.018309375 0.0
128 1 -0.030121875 -0.00125 -0.017128125 7.58454199817e-249
129 1 -0.030121875 -0.00125 -0.015946875 0.0
130 1 -0.030121875 -0.00125 -0.014765625 1.98756521406e-168
131 1 -0.030121875 -0.00125 -0.013584375 2.75222480416e-241
132 1 -0.030121875 -0.00125 -0.012403125 1.50760962083e-116
133 1 -0.030121875 -0.00125 -0.011221875 4.62403332601e-263
134 1 -0.030121875 -0.00125 -0.010040625 0.0
135 1 -0.030121875 -0.00125 -0.008859375 0.0
136 1 -0.030121875 -0.00125 -0.007678125 0.0
137 1 -0.030121875 -0.00125 -0.006496875 0.0
138 1 -0.030121875 -0.00125 -0.005315625 0.0
139 1 -0.030121875 -0.00125 -0.004134375 0.0
140 1 -0.030121875 -0.00125 -0.002953125 3.75745361988e-173
141 1 -0.030121875 -0.00125 -0.001771875 2.05309191723e-219
142 1 -0.030121875 -0.00125 -0.000590625 0.0
143 1 -0.030121875 -0.00125 0.000590625 3.14023289419e-282
144 1 -0.030121875 -0.00125 0.001771875 3.30501692874e-164
145 1 -0.030121875 -0.00125 0.002953125 9.07090598935e-162
146 1 -0.030121875 -0.00125 0.004134375 1.69057176684e-195
147 1 -0.030121875 -0.00125 0.005315625 1.66622000326e-128
148 1 -0.030121875 -0.00125 0.006496875 3.55038335939e-239
149 1 -0.030121875 -0.00125 0.007678125 4.90937904619e-216
150 1 -0.030121875 -0.00125 0.008859375 0.0
151 1 -0.030121875 -0.00125 0.010040625 8.90431865131e-272
152 1 -0.030121875 -0.00125 0.011221875 0.0
153 1 -0.030121875 -0.00125 0.012403125 0.0
154 1 -0.030121875 -0.00125 0.013584375 0.0
155 1 -0.030121875 -0.00125 0.014765625 0.0
156 1 -0.030121875 -0.00125 0.015946875 0.0
157 1 -0.030121875 -0.00125 0.017128125 0.0
158 1 -0.030121875 -0.00125 0.018309375 0.0
159 1 -0.030121875 -0.00125 0.019490625 0.0
160 1 -0.030121875 -0.00125 0.020671875 1.61580329621e-284
161 1 -0.028940625 -0.00125 -0.021853125 0.0
162 1 -0.028940625 -0.00125 -0.020671875 0.0
163 1 -0.028940625 -0.00125 -0.019490625 0.0
164 1 -0.028940625 -0.00125 -0.018309375 0.0
165 1 -0.028940625 -0.00125 -0.017128125 0.0
166 1 -0.028940625 -0.00125 -0.015946875 0.0
167 1 -0.028940625 -0.00125 -0.014765625 0.0
168 1 -0.028940625 -0.00125 -0.013584375 0.0
169 1 -0.028940625 -0.00125 -0.012403125 3.64228816651e-306
170 1 -0.028940625 -0.00125 -0.011221875 0.0
171 1 -0.028940625 -0.00125 -0.010040625 0.0
172 1 -0.028940625 -0.00125 -0.008859375 3.42821177835e-295
173 1 -0.028940625 -0.00125 -0.007678125 3.53197821388e-166
174 1 -0.028940625 -0.00125 -0.006496875 2.07148176827e-111
175 1 -0.028940625 -0.00125 -0.005315625 3.13640413055e-127
176 1 -0.028940625 -0.00125 -0.004134375 5.26230065903e-165
177 1 -0.028940625 -0.00125 -0.002953125 2.25048041613e-173
178 1 -0.028940625 -0.00125 -0.001771875 4.19391293859e-211
179 1 -0.028940625 -0.00125 -0.000590625 1.9550781142e-81
180 1 -0.028940625 -0.00125 0.000590625 5.2074753454e-136
181 1 -0.028940625 -0.00125 0.001771875 1.17251421785e-142
182 1 -0.028940625 -0.00125 0.002953125 9.96473437756e-141
183 1 -0.028940625 -0.00125 0.004134375 5.82655827916e-208
184 1 -0.028940625 -0.00125 0.005315625 3.19726791176e-188
185 1 -0.028940625 -0.00125 0.006496875 1.06071389973e-232
186 1 -0.028940625 -0.00125 0.007678125 1.67361056826e-307
187 1 -0.028940625 -0.00125 0.008859375 3.72697936444e-271
188 1 -0.028940625 -0.00125 0.010040625 0.0
189 1 -0.028940625 -0.00125 0.011221875 0.0
190 1 -0.028940625 -0.00125 0.012403125 0.0
191 1 -0.028940625 -0.00125 0.013584375 0.0
192 1 -0.028940625 -0.00125 0.014765625 0.0
193 1 -0.028940625 -0.00125 0.015946875 0.0
194 1 -0.028940625 -0.00125 0.017128125 0.0
195 1 -0.028940625 -0.00125 0.018309375 5.30208275808e-290
196 1 -0.028940625 -0.00125 0.019490625 8.63670838868e-293
197 1 -0.028940625 -0.00125 0.020671875 4.69491596591e-184
198 1 -0.028940625 -0.00125 0.021853125 2.70612033796e-117
199 1 -0.027759375 -0.00125 -0.024215625 0.0
200 1 -0.027759375 -0.00125 -0.023034375 0.0
201 1 -0.027759375 -0.00125 -0.021853125 0.0
202 1 -0.027759375 -0.00125 -0.020671875 0.0
203 1 -0.027759375 -0.00125 -0.019490625 0.0
204 1 -0.027759375 -0.00125 -0.018309375 0.0
205 1 -0.027759375 -0.00125 -0.017128125 0.0
206 1 -0.027759375 -0.00125 -0.015946875 0.0
207 1 -0.027759375 -0.00125 -0.014765625 5.310031954e-233
208 1 -0.027759375 -0.00125 -0.013584375 1.86412226595e-288
209 1 -0.027759375 -0.00125 -0.012403125 7.49679073847e-96
210 1 -0.027759375 -0.00125 -0.011221875 1.16233477934e-190
211 1 -0.027759375 -0.00125 -0.010040625 3.48057553006e-212
212 1 -0.027759375 -0.00125 -0.008859375 2.39452330217e-202
213 1 -0.027759375 -0.00125 -0.007678125 2.50618509992e-130
214 1 -0.027759375 -0.00125 -0.006496875 5.34837423932e-79
215 1 -0.027759375 -0.00125 -0.005315625 5.26544563173e-70
216 1 -0.027759375 -0.00125 -0.004134375 1.7583451377e-104
217 1 -0.027759375 -0.00125 -0.002953125 4.42720110752e-56
218 1 -0.027759375 -0.00125 -0.001771875 2.51965791796e-144
219 1 -0.027759375 -0.00125 -0.000590625 2.45449377804e-27
220 1 -0.027759375 -0.00125 0.000590625 2.59561655432e-35
221 1 -0.027759375 -0.00125 0.001771875 2.63519381762e-48
222 1 -0.027759375 -0.00125 0.002953125 1.65295241525e-50
223 1 -0.027759375 -0.00125 0.004134375 7.1580337065e-53
224 1 -0.027759375 -0.00125 0.005315625 8.60662074519e-53
225 1 -0.027759375 -0.00125 0.006496875 4.95166568396e-130
226 1 -0.027759375 -0.00125 0.007678125 8.13883732696e-141
227 1 -0.027759375 -0.00125 0.008859375 1.22082935212e-40
228 1 -0.027759375 -0.00125 0.010040625 1.49862015878e-60
229 1 -0.027759375 -0.00125 0.011221875 0.0
230 1 -0.027759375 -0.00125 0.012403125 0.0
231 1 -0.027759375 -0.00125 0.013584375 0.0
232 1 -0.027759375 -0.00125 0.014765625 0.0
233 1 -0.027759375 -0.00125 0.015946875 0.0
234 1 -0.027759375 -0.00125 0.017128125 0.0
235 1 -0.027759375 -0.00125 0.018309375 2.62258995726e-222
236 1 -0.027759375 -0.00125 0.019490625 6.3354870569e-149
237 1 -0.027759375 -0.00125 0.020671875 2.40066447593e-138
238 1 -0.027759375 -0.00125 0.021853125 3.46527552182e-30
239 1 -0.027759375 -0.00125 0.023034375 5.02979607958e-91
240 1 -0.027759375 -0.00125 0.024215625 0.0
241 1 -0.026578125 -0.00125 -0.026578125 0.0
242 1 -0.026578125 -0.00125 -0.025396875 0.0
243 1 -0.026578125 -0.00125 -0.024215625 0.0
244 1 -0.026578125 -0.00125 -0.023034375 0.0
245 1 -0.026578125 -0.00125 -0.021853125 0.0
246 1 -0.026578125 -0.00125 -0.020671875 0.0
247 1 -0.026578125 -0.00125 -0.019490625 1.24362209734e-157
248 1 -0.026578125 -0.00125 -0.018309375 2.57214377172e-228
249 1 -0.026578125 -0.00125 -0.017128125 3.32087098489e-244
250 1 -0.026578125 -0.00125 -0.015946875 6.83717314655e-138
251 1 -0.026578125 -0.00125 -0.014765625 1.76866840957e-160
252 1 -0.026578125 -0.00125 -0.013584375 1.22093155357e-100
253 1 -0.026578125 -0.00125 -0.012403125 7.53046243903e-76
254 1 -0.026578125 -0.00125 -0.011221875 2.12610103969e-56
255 1 -0.026578125 -0.00125 -0.010040625 4.09351237693e-168
256 1 -0.026578125 -0.00125 -0.008859375 1.0367245137e-131
257 1 -0.026578125 -0.00125 -0.007678125 1.45521259468e-34
258 1 -0.026578125 -0.00125 -0.006496875 1.85466066059e-33
259 1 -0.026578125 -0.00125 -0.005315625 5.55079783406e-24
260 1 -0.026578125 -0.00125 -0.004134375 6.95419725258e-34
261 1 -0.026578125 -0.00125 -0.002953125 1.09514572877e-40
262 1 -0.026578125 -0.00125 -0.001771875 8.28189259918e-23
263 1 -0.026578125 -0.00125 -0.000590625 3.73374539941e-16
264 1 -0.026578125 -0.00125 0.000590625 3.27775876949e-18
265 1 -0.026578125 -0.00125 0.001771875 1.29226604357e-13
266 1 -0.026578125 -0.00125 0.002953125 5.4987954647e-17
267 1 -0.026578125 -0.00125 0.004134375 4.10153242718e-27
268 1 -0.026578125 -0.00125 0.005315625 1.02187896381e-19
269 1 -0.026578125 -0.00125 0.006496875 1.14873497935e-22
270 1 -0.026578125 -0.00125 0.007678125 2.43008381116e-14
271 1 -0.026578125 -0.00125 0.008859375 1.27687294849e-31
272 1 -0.026578125 -0.00125 0.010040625 4.68516613601e-42
273 1 -0.026578125 -0.00125 0.011221875 3.99912328907e-88
274 1 -0.026578125 -0.00125 0.012403125 1.02212015395e-213
275 1 -0.026578125 -0.00125 0.013584375 0.0
276 1 -0.026578125 -0.00125 0.014765625 0.0
277 1 -0.026578125 -0.00125 0.015946875 0.0
278 1 -0.026578125 -0.00125 0.017128125 0.0
279 1 -0.026578125 -0.00125 0.018309375 7.41606738863e-120
280 1 -0.026578125 -0.00125 0.019490625 3.15954472185e-100
281 1 -0.026578125 -0.00125 0.020671875 5.80383207731e-161
282 1 -0.026578125 -0.00125 0.021853125 8.24104238261e-249
283 1 -0.026578125 -0.00125 0.023034375 0.0
284 1 -0.026578125 -0.00125 0.024215625 0.0
285 1 -0.026578125 -0.00125 0.025396875 0.0
286 1 -0.026578125 -0.00125 0.026578125 0.0
287 1 -0.025396875 -0.00125 -0.026578125 0.0
288 1 -0.025396875 -0.00125 -0.025396875 0.0
289 1 -0.025396875 -0.00125 -0.024215625 0.0
290 1 -0.025396875 -0.00125 -0.023034375 0.0
291 1 -0.025396875 -0.00125 -0.021853125 0.0
292 1 -0.025396875 -0.00125 -0.020671875 0.0
293 1 -0.025396875 -0.00125 -0.019490625 4.06690980984e-172
294 1 -0.025396875 -0.00125 -0.018309375 3.14137419646e-201
295 1 -0.025396875 -0.00125 -0.017128125 2.57495366593e-97
296 1 -0.025396875 -0.00125 -0.015946875 1.11180191689e-75
297 1 -0.025396875 -0.00125 -0.014765625 3.39600010765e-25
298 1 -0.025396875 -0.00125 -0.013584375 2.64591388737e-76
299 1 -0.025396875 -0.00125 -0.012403125 3.1086844732e-47
300 1 -0.025396875 -0.00125 -0.011221875 3.27944177979e-74
301 1 -0.025396875 -0.00125 -0.010040625 1.51596576652e-54
302 1 -0.025396875 -0.00125 -0.008859375 8.39587967822e-87
303 1 -0.025396875 -0.00125 -0.007678125 1.02510859327e-30
304 1 -0.025396875 -0.00125 -0.006496875 1.64788372435e-62
305 1 -0.025396875 -0.00125 -0.005315625 3.33425673287e-26
306 1 -0.025396875 -0.00125 -0.004134375 2.50700350693e-44
307 1 -0.025396875 -0.00125 -0.002953125 6.82281099623e-20
308 1 -0.025396875 -0.00125 -0.001771875 3.13569875422e-18
309 1 -0.025396875 -0.00125 -0.000590625 5.3580701438e-28
310 1 -0.025396875 -0.00125 0.000590625 1.2065176227e-18
311 1 -0.025396875 -0.00125 0.001771875 6.16063965716e-17
312 1 -0.025396875 -0.00125 0.002953125 4.84117721447e-27
313 1 -0.025396875 -0.00125 0.004134375 4.72966410656e-14
314 1 -0.025396875 -0.00125 0.005315625 7.67151692429e-15
315 1 -0.025396875 -0.00125 0.006496875 1.50174237467e-14
316 1 -0.025396875 -0.00125 0.007678125 2.09572895458e-10
317 1 -0.025396875 -0.00125 0.008859375 3.87593286254e-16
318 1 -0.025396875 -0.00125 0.010040625 5.34815874043e-14
319 1 -0.025396875 -0.00125 0.011221875 2.74819158865e-22
320 1 -0.025396875 -0.00125 0.012403125 3.85982621541e-53
321 1 -0.025396875 -0.00125 0.013584375 3.94091983916e-77
322 1 -0.025396875 -0.00125 0.014765625 0.0
323 1 -0.025396875 -0.00125 0.015946875 0.0
324 1 -0.025396875 -0.00125 0.017128125 6.75996716392e-238
325 1 -0.025396875 -0.00125 0.018309375 3.516014228e-115
326 1 -0.025396875 -0.00125 0.019490625 2.76532457458e-130
327 1 -0.025396875 -0.00125 0.020671875 6.93279403814e-196
328 1 -0.025396875 -0.00125 0.021853125 0.0
329 1 -0.025396875 -0.00125 0.023034375 0.0
330 1 -0.025396875 -0.00125 0.024215625 0.0
331 1 -0.025396875 -0.00125 0.025396875 0.0
332 1 -0.025396875 -0.00125 0.026578125 0.0
333 1 -0.024215625 -0.00125 -0.027759375 0.0
334 1 -0.024215625 -0.00125 -0.026578125 0.0
335 1 -0.024215625 -0.00125 -0.025396875 0.0
336 1 -0.024215625 -0.00125 -0.024215625 0.0
337 1 -0.024215625 -0.00125 -0.023034375 0.0
338 1 -0.024215625 -0.00125 -0.021853125 0.0
339 1 -0.024215625 -0.00125 -0.020671875 0.0
340 1 -0.024215625 -0.00125 -0.019490625 2.72143412697e-99
341 1 -0.024215625 -0.00125 -0.018309375 1.4236696515e-118
342 1 -0.024215625 -0.00125 -0.017128125 1.58731588799e-115
343 1 -0.024215625 -0.00125 -0.015946875 7.54543006755e-49
344 1 -0.024215625 -0.00125 -0.014765625 4.30782120505e-27
345 1 -0.024215625 -0.00125 -0.013584375 5.41643726001e-33
346 1 -0.024215625 -0.00125 -0.012403125 4.70454318254e-32
347 1 -0.024215625 -0.00125 -0.011221875 1.31459109034e-41
348 1 -0.024215625 -0.00125 -0.010040625 2.57497370536e-35
349 1 -0.024215625 -0.00125 -0.008859375 7.73860114571e-34
350 1 -0.024215625 -0.00125 -0.007678125 3.97121332888e-28
351 1 -0.024215625 -0.00125 -0.006496875 1.76985662746e-20
352 1 -0.024215625 -0.00125 -0.005315625 3.33723916486e-13
353 1 -0.024215625 -0.00125 -0.004134375 4.69588881385e-09
354 1 -0.024215625 -0.00125 -0.002953125 1.8061515788e-10
355 1 -0.024215625 -0.00125 -0.001771875 2.23857913627e-13
356 1 -0.024215625 -0.00125 -0.000590625 2.59845307993e-14
357 1 -0.024215625 -0.00125 0.000590625 2.75037689076e-08
358 1 -0.024215625 -0.00125 0.001771875 3.37805475907e-09
359 1 -0.024215625 -0.00125 0.002953125 5.64707343788e-08
360 1 -0.024215625 -0.00125 0.004134375 1.83597702639e-08
361 1 -0.024215625 -0.00125 0.005315625 1.62735120108e-09
362 1 -0.024215625 -0.00125 0.006496875 4.05352553746e-16
363 1 -0.024215625 -0.00125 0.007678125 5.60746736977e-11
364 1 -0.024215625 -0.00125 0.008859375 2.03763814835e-11
365 1 -0.024215625 -0.00125 0.010040625 4.65856410784e-09
366 1 -0.024215625 -0.00125 0.011221875 3.42855512495e-11
367 1 -0.024215625 -0.00125 0.012403125 1.11852143457e-14
368 1 -0.024215625 -0.00125 0.013584375 8.47911131265e-35
369 1 -0.024215625 -0.00125 0.014765625 9.10292543316e-66
370 1 -0.024215625 -0.00125 0.015946875 3.73530646794e-198
371 1 -0.024215625 -0.00125 0.017128125 6.94327936393e-131
372 1 -0.024215625 -0.00125 0.018309375 9.01503094866e-73
373 1 -0.024215625 -0.00125 0.019490625 5.20237791074e-144
374 1 -0.024215625 -0.00125 0.020671875 3.66765186911e-228
375 1 -0.024215625 -0.00125 0.021853125 4.64117054815e-259
376 1 -0.024215625 -0.00125 0.023034375 0.0
377 1 -0.024215625 -0.00125 0.024215625 0.0
378 1 -0.024215625 -0.00125 0.025396875 0.0
379 1 -0.024215625 -0.00125 0.026578125 0.0
380 1 -0.024215625 -0.00125 0.027759375 0.0
381 1 -0.023034375 -0.00125 -0.027759375 0.0
382 1 -0.023034375 -0.00125 -0.026578125 0.0
383 1 -0.023034375 -0.00125 -0.025396875 0.0
384 1 -0.023034375 -0.00125 -0.024215625 0.0
385 1 -0.023034375 -0.00125 -0.023034375 0.0
386 1 -0.023034375 -0.00125 -0.021853125 1.00040615655e-154
387 1 -0.023034375 -0.00125 -0.020671875 4.04270160766e-137
388 1 -0.023034375 -0.00125 -0.019490625 1.21751499021e-75
389 1 -0.023034375 -0.00125 -0.018309375 3.57768543303e-87
390 1 -0.023034375 -0.00125 -0.017128125 5.26879312319e-36
391 1 -0.023034375 -0.00125 -0.015946875 5.52270591165e-33
392 1 -0.023034375 -0.00125 -0.014765625 9.20258053767e-21
393 1 -0.023034375 -0.00125 -0.013584375 2.21501850842e-27
394 1 -0.023034375 -0.00125 -0.012403125 7.98820851828e-23
395 1 -0.023034375 -0.00125 -0.011221875 8.66703412347e-31
396 1 -0.023034375 -0.00125 -0.010040625 8.9404779954e-42
397 1 -0.023034375 -0.00125 -0.008859375 1.50481631552e-36
398 1 -0.023034375 -0.00125 -0.007678125 1.66998761518e-14
399 1 -0.023034375 -0.00125 -0.006496875 6.46392850948e-16
400 1 -0.023034375 -0.00125 -0.005315625 2.18918138644e-16
401 1 -0.023034375 -0.00125 -0.004134375 5.94674022186e-21
402 1 -0.023034375 -0.00125 -0.002953125 5.72531106241e-08
403 1 -0.023034375 -0.00125 -0.001771875 1.95470813538e-09
404 1 -0.023034375 -0.00125 -0.000590625 4.59673375383e-07
405 1 -0.023034375 -0.00125 0.000590625 1.41037591414e-05
406 1 -0.023034375 -0.00125 0.001771875 0.000436783784192
407 1 -0.023034375 -0.00125 0.002953125 2.28967880209e-05
408 1 -0.023034375 -0.00125 0.004134375 2.00041173581e-07
409 1 -0.023034375 -0.00125 0.005315625 1.81391332398e-14
410 1 -0.023034375 -0.00125 0.006496875 6.19571070118e-06
411 1 -0.023034375 -0.00125 0.007678125 5.73557602685e-06
412 1 -0.023034375 -0.00125 0.008859375 2.26465511851e-07
413 1 -0.023034375 -0.00125 0.010040625 2.93367659368e-11
414 1 -0.023034375 -0.00125 0.011221875 1.73451506718e-12
415 1 -0.023034375 -0.00125 0.012403125 2.4142790425e-15
416 1 -0.023034375 -0.00125 0.013584375 4.21686613741e-28
417 1 -0.023034375 -0.00125 0.014765625 8.28779077817e-48
418 1 -0.023034375 -0.00125 0.015946875 1.12866405508e-50
419 1 -0.023034375 -0.00125 0.017128125 2.95946284941e-130
420 1 -0.023034375 -0.00125 0.018309375 9.02336182554e-88
421 1 -0.023034375 -0.00125 0.019490625 1.16227998302e-81
422 1 -0.023034375 -0.00125 0.020671875 2.48481882106e-85
423 1 -0.023034375 -0.00125 0.021853125 0.0
424 1 -0.023034375 -0.00125 0.023034375 0.0
425 1 -0.023034375 -0.00125 0.024215625 0.0
426 1 -0.023034375 -0.00125 0.025396875 0.0
427 1 -0.023034375 -0.00125 0.026578125 8.42097316878e-277
428 1 -0.023034375 -0.00125 0.027759375 3.06042429501e-57
429 1 -0.021853125 -0.00125 -0.028940625 0.0
430 1 -0.021853125 -0.00125 -0.027759375 0.0
431 1 -0.021853125 -0.00125 -0.026578125 0.0
432 1 -0.021853125 -0.00125 -0.025396875 0.0
433 1 -0.021853125 -0.00125 -0.024215625 0.0
434 1 -0.021853125 -0.00125 -0.023034375 0.0
435 1 -0.021853125 -0.00125 -0.021853125 7.8740164646e-60
436 1 -0.021853125 -0.00125 -0.020671875 3.3074420926e-41
437 1 -0.021853125 -0.00125 -0.019490625 2.09733743662e-55
438 1 -0.021853125 -0.00125 -0.018309375 1.94927152021e-64
439 1 -0.021853125 -0.00125 -0.017128125 1.08604596612e-21
440 1 -0.021853125 -0.00125 -0.015946875 1.00891061887e-11
441 1 -0.021853125 -0.00125 -0.014765625 1.29330858691e-11
442 1 -0.021853125 -0.00125 -0.013584375 1.17836065187e-14
443 1 -0.021853125 -0.00125 -0.012403125 2.27679227437e-12
444 1 -0.021853125 -0.00125 -0.011221875 2.58597686736e-14
445 1 -0.021853125 -0.00125 -0.010040625 3.30101259348e-22
446 1 -0.021853125 -0.00125 -0.008859375 1.26781181214e-18
447 1 -0.021853125 -0.00125 -0.007678125 4.0524560592e-09
448 1 -0.021853125 -0.00125 -0.006496875 3.01391461632e-12
449 1 -0.021853125 -0.00125 -0.005315625 6.02837949895e-13
450 1 -0.021853125 -0.00125 -0.004134375 1.09036985594e-08
451 1 -0.021853125 -0.00125 -0.002953125 3.55784641199e-09
452 1 -0.021853125 -0.00125 -0.001771875 8.81827412633e-07
453 1 -0.021853125 -0.00125 -0.000590625 0.000395991093588
454 1 -0.021853125 -0.00125 0.000590625 0.000528731594867
455 1 -0.021853125 -0.00125 0.001771875 0.000118419243798
456 1 -0.021853125 -0.00125 0.002953125 0.000144757660395
457 1 -0.021853125 -0.00125 0.004134375 4.9331640966e-06
458 1 -0.021853125 -0.00125 0.005315625 6.12990318706e-06
459 1 -0.021853125 -0.00125 0.006496875 2.49327266294e-05
460 1 -0.021853125 -0.00125 0.007678125 1.26379845177e-06
461 1 -0.021853125 -0.00125 0.008859375 2.93599395298e-05
462 1 -0.021853125 -0.00125 0.010040625 2.27848422792e-07
463 1 -0.021853125 -0.00125 0.011221875 2.59499575633e-08
464 1 -0.021853125 -0.00125 0.012403125 1.39735918441e-08
465 1 -0.021853125 -0.00125 0.013584375 1.40432969558e-20
466 1 -0.021853125 -0.00125 0.014765625 3.70352181718e-18
467 1 -0.021853125 -0.00125 0.015946875 2.50356370668e-19
468 1 -0.021853125 -0.00125 0.017128125 1.24799058237e-35
469 1 -0.021853125 -0.00125 0.018309375 7.73157980689e-73
470 1 -0.021853125 -0.00125 0.019490625 1.41872225188e-59
471 1 -0.021853125 -0.00125 0.020671875 3.23779404995e-53
472 1 -0.021853125 -0.00125 0.021853125 1.94240295626e-114
473 1 -0.021853125 -0.00125 0.023034375 6.25772300463e-284
474 1 -0.021853125 -0.00125 0.024215625 0.0
475 1 -0.021853125 -0.00125 0.025396875 3.4813344828e-199
476 1 -0.021853125 -0.00125 0.026578125 1.24506301763e-75
477 1 -0.021853125 -0.00125 0.027759375 3.41096192807e-41
478 1 -0.021853125 -0.00125 0.028940625 2.24991050215e-59
479 1 -0.020671875 -0.00125 -0.030121875 0.0
480 1 -0.020671875 -0.00125 -0.028940625 0.0
481 1 -0.020671875 -0.00125 -0.027759375 0.0
482 1 -0.020671875 -0.00125 -0.026578125 0.0
483 1 -0.020671875 -0.00125 -0.025396875 0.0
484 1 -0.020671875 -0.00125 -0.024215625 1.38202231248e-284
485 1 -0.020671875 -0.00125 -0.023034375 1.84468686469e-157
486 1 -0.020671875 -0.00125 -0.021853125 1.80662656154e-27
487 1 -0.020671875 -0.00125 -0.020671875 7.76920402214e-36
488 1 -0.020671875 -0.00125 -0.019490625 1.68694426112e-30
489 1 -0.020671875 -0.00125 -0.018309375 5.6465060187e-24
490 1 -0.020671875 -0.00125 -0.017128125 7.94622303775e-10
491 1 -0.020671875 -0.00125 -0.015946875 2.26608031536e-11
492 1 -0.020671875 -0.00125 -0.014765625 3.19425702169e-07
493 1 -0.020671875 -0.00125 -0.013584375 2.10003247532e-16
494 1 -0.020671875 -0.00125 -0.012403125 1.87456991334e-13
495 1 -0.020671875 -0.00125 -0.011221875 1.28666713068e-19
496 1 -0.020671875 -0.00125 -0.010040625 2.59622154333e-13
497 1 -0.020671875 -0.00125 -0.008859375 3.14306173092e-17
498 1 -0.020671875 -0.00125 -0.007678125 1.72180731468e-14
499 1 -0.020671875 -0.00125 -0.006496875 7.61599160199e-14
500 1 -0.020671875 -0.00125 -0.005315625 2.3881081396e-18
501 1 -0.020671875 -0.00125 -0.004134375 6.60426732567e-07
502 1 -0.020671875 -0.00125 -0.002953125 3.07417104809e-12
503 1 -0.020671875 -0.00125 -0.001771875 1.35562899969e-06
504 1 -0.020671875 -0.00125 -0.000590625 5.94242473518e-05
505 1 -0.020671875 -0.00125 0.000590625 0.000128410394853
506 1 -0.020671875 -0.00125 0.001771875 4.08103328565e-06
507 1 -0.020671875 -0.00125 0.002953125 2.05910107877e-07
508 1 -0.020671875 -0.00125 0.004134375 7.88060515285e-08
509 1 -0.020671875 -0.00125 0.005315625 0.000111783697292
510 1 -0.020671875 -0.00125 0.006496875 6.93075412803e-06
511 1 -0.020671875 -0.00125 0.007678125 8.89019436281e-06
512 1 -0.020671875 -0.00125 0.008859375 1.04277762723e-05
513 1 -0.020671875 -0.00125 0.010040625 1.13559235129e-07
514 1 -0.020671875 -0.00125 0.011221875 4.14052029032e-08
515 1 -0.020671875 -0.00125 0.012403125 4.75485229688e-09
516 1 -0.020671875 -0.00125 0.013584375 3.99538262837e-15
517 1 -0.020671875 -0.00125 0.014765625 1.02293645624e-13
518 1 -0.020671875 -0.00125 0.015946875 6.17234271619e-09
519 1 -0.020671875 -0.00125 0.017128125 2.34013395743e-13
520 1 -0.020671875 -0.00125 0.018309375 2.03366646693e-21
521 1 -0.020671875 -0.00125 0.019490625 3.35791324147e-19
522 1 -0.020671875 -0.00125 0.020671875 2.50264585162e-29
523 1 -0.020671875 -0.00125 0.021853125 5.30301572611e-54
524 1 -0.020671875 -0.00125 0.023034375 4.74452947094e-97
525 1 -0.020671875 -0.00125 0.024215625 3.44481686038e-124
526 1 -0.020671875 -0.00125 0.025396875 1.96057357555e-63
527 1 -0.020671875 -0.00125 0.026578125 1.77371895818e-59
528 1 -0.020671875 -0.00125 0.027759375 2.81532128697e-42
529 1 -0.020671875 -0.00125 0.028940625 1.73345201888e-169
530 1 -0.020671875 -0.00125 0.030121875 1.47662223962e-308
531 1 -0.019490625 -0.00125 -0.031303125 6.39218811163e-204
532 1 -0.019490625 -0.00125 -0.030121875 0.0
533 1 -0.019490625 -0.00125 -0.028940625 0.0
534 1 -0.019490625 -0.00125 -0.027759375 0.0
535 1 -0.019490625 -0.00125 -0.026578125 1.72954849975e-119
536 1 -0.019490625 -0.00125 -0.025396875 4.42819388637e-64
537 1 -0.019490625 -0.00125 -0.024215625 2.80610641306e-47
538 1 -0.019490625 -0.00125 -0.023034375 7.1908705737e-39
539 1 -0.019490625 -0.00125 -0.021853125 6.66091436149e-27
540 1 -0.019490625 -0.00125 -0.020671875 2.06176033113e-20
541 1 -0.019490625 -0.00125 -0.019490625 5.47164349746e-12
542 1 -0.019490625 -0.00125 -0.018309375 1.37098582699e-08
543 1 -0.019490625 -0.00125 -0.017128125 1.63281291708e-07
544 1 -0.019490625 -0.00125 -0.015946875 7.34189117078e-07
545 1 -0.019490625 -0.00125 -0.014765625 3.26214703903e-06
546 1 -0.019490625 -0.00125 -0.013584375 2.23606657034e-08
547 1 -0.019490625 -0.00125 -0.012403125 9.30992280218e-13
548 1 -0.019490625 -0.00125 -0.011221875 3.27723509025e-12
549 1 -0.019490625 -0.00125 -0.010040625 1.03390076141e-08
550 1 -0.019490625 -0.00125 -0.008859375 8.15465296525e-12
551 1 -0.019490625 -0.00125 -0.007678125 2.78931132391e-11
552 1 -0.019490625 -0.00125 -0.006496875 1.39272391474e-11
553 1 -0.019490625 -0.00125 -0.005315625 4.3833189703e-07
554 1 -0.019490625 -0.00125 -0.004134375 7.47770264656e-10
555 1 -0.019490625 -0.00125 -0.002953125 8.52590801228e-13
556 1 -0.019490625 -0.00125 -0.001771875 5.86285619514e-09
557 1 -0.019490625 -0.00125 -0.000590625 3.55325836333e-06
558 1 -0.019490625 -0.00125 0.000590625 3.28668284807e-05