ITEM: TIMESTEP
0
ITEM: NUMBER OF ATOMS
3080
ITEM: BOX BOUNDS ss ss ss
-3.7007399999999996e-02 3.7007399999999996e-02
-2.0002499999999999e-03 2.5000000000000004e-07
-3.7007399999999996e-02 3.7007399999999996e-02
ITEM: ATOMS id type x y z c_1
0 1 -0.037209375 -0.00125 -0.000590625 0.156313623336
1 1 -0.036028125 -0.00125 -0.007678125 2.43701791991e-06
2 1 -0.036028125 -0.00125 -0.006496875 5.22887570517e-09
3 1 -0.036028125 -0.00125 -0.005315625 2.11560699438e-13
4 1 -0.036028125 -0.00125 -0.004134375 2.38561408877e-10
5 1 -0.036028125 -0.00125 -0.002953125 0.00137377604001
6 1 -0.036028125 -0.00125 -0.001771875 0.026353916044
7 1 -0.036028125 -0.00125 -0.000590625 0.0793485924546
8 1 -0.036028125 -0.00125 0.000590625 0.229417081569
9 1 -0.036028125 -0.00125 0.001771875 0.393215238903
10 1 -0.036028125 -0.00125 0.002953125 0.0357580386739
11 1 -0.036028125 -0.00125 0.004134375 0.000217410717384
12 1 -0.036028125 -0.00125 0.005315625 1.56404094414e-06
13 1 -0.036028125 -0.00125 0.006496875 3.96021158065e-06
14 1 -0.036028125 -0.00125 0.007678125 0.000512400165355
15 1 -0.034846875 -0.00125 -0.011221875 0.0012137557774
16 1 -0.034846875 -0.00125 -0.010040625 0.00106472386298
17 1 -0.034846875 -0.00125 -0.008859375 0.015813643981
18 1 -0.034846875 -0.00125 -0.007678125 3.5842477152e-06
19 1 -0.034846875 -0.00125 -0.006496875 7.18763788905e-10
20 1 -0.034846875 -0.00125 -0.005315625 2.07674109203e-11
21 1 -0.034846875 -0.00125 -0.004134375 2.04067345128e-07
22 1 -0.034846875 -0.00125 -0.002953125 0.00106222630855
23 1 -0.034846875 -0.00125 -0.001771875 0.0378952004176
24 1 -0.034846875 -0.00125 -0.000590625 0.142135348776
25 1 -0.034846875 -0.00125 0.000590625 0.33673007954
26 1 -0.034846875 -0.00125 0.001771875 0.368141825964
27 1 -0.034846875 -0.00125 0.002953125 0.120397682209
28 1 -0.034846875 -0.00125 0.004134375 0.000328539707209
29 1 -0.034846875 -0.00125 0.005315625 6.63975629589e-08
30 1 -0.034846875 -0.00125 0.006496875 2.92211287029e-08
31 1 -0.034846875 -0.00125 0.007678125 0.00949757515064
32 1 -0.034846875 -0.00125 0.008859375 0.161761378624
33 1 -0.034846875 -0.00125 0.010040625 0.0179798031385
34 1 -0.034846875 -0.00125 0.011221875 0.016812041185
35 1 -0.033665625 -0.00125 -0.013584375 4.7026137903e-06
36 1 -0.033665625 -0.00125 -0.012403125 0.0219442113284
37 1 -0.033665625 -0.00125 -0.011221875 0.00596294844018
38 1 -0.033665625 -0.00125 -0.010040625 0.00586158375328
39 1 -0.033665625 -0.00125 -0.008859375 0.0111780477762
40 1 -0.033665625 -0.00125 -0.007678125 4.12573837159e-05
41 1 -0.033665625 -0.00125 -0.006496875 2.10840853473e-06
42 1 -0.033665625 -0.00125 -0.005315625 1.03053726741e-07
43 1 -0.033665625 -0.00125 -0.004134375 0.00167069818494
44 1 -0.033665625 -0.00125 -0.002953125 0.00882297061775
45 1 -0.033665625 -0.00125 -0.001771875 0.0620998428377
46 1 -0.033665625 -0.00125 -0.000590625 0.19096421256
47 1 -0.033665625 -0.00125 0.000590625 0.299143240264
48 1 -0.033665625 -0.00125 0.001771875 0.37067247315
49 1 -0.033665625 -0.00125 0.002953125 0.171284387662
50 1 -0.033665625 -0.00125 0.004134375 0.00224262209229
51 1 -0.033665625 -0.00125 0.005315625 0.000666092880284
52 1 -0.033665625 -0.00125 0.006496875 0.000243916573566
53 1 -0.033665625 -0.00125 0.007678125 0.0417051991201
54 1 -0.033665625 -0.00125 0.008859375 0.159714262865
55 1 -0.033665625 -0.00125 0.010040625 0.050733178999
56 1 -0.033665625 -0.00125 0.011221875 0.0392433556911
57 1 -0.033665625 -0.00125 0.012403125 0.0978256938439
58 1 -0.033665625 -0.00125 0.013584375 0.00191794684304
59 1 -0.032484375 -0.00125 -0.018309375 1.51891276446e-05
60 1 -0.032484375 -0.00125 -0.017128125 0.000969791082641
61 1 -0.032484375 -0.00125 -0.015946875 0.000184132863796
62 1 -0.032484375 -0.00125 -0.014765625 3.81585174944e-05
63 1 -0.032484375 -0.00125 -0.013584375 1.00519672942e-05
64 1 -0.032484375 -0.00125 -0.012403125 0.00499384043314
65 1 -0.032484375 -0.00125 -0.011221875 0.0120537810689
66 1 -0.032484375 -0.00125 -0.010040625 0.0104205759804
67 1 -0.032484375 -0.00125 -0.008859375 0.007674061582
68 1 -0.032484375 -0.00125 -0.007678125 0.000241415785834
69 1 -0.032484375 -0.00125 -0.006496875 3.12914768349e-06
70 1 -0.032484375 -0.00125 -0.005315625 1.60879683409e-05
71 1 -0.032484375 -0.00125 -0.004134375 0.00181155838801
72 1 -0.032484375 -0.00125 -0.002953125 0.00367246742228
73 1 -0.032484375 -0.00125 -0.001771875 0.0796864004627
74 1 -0.032484375 -0.00125 -0.000590625 0.149179965673
75 1 -0.032484375 -0.00125 0.000590625 0.170916773558
76 1 -0.032484375 -0.00125 0.001771875 0.101485782908
77 1 -0.032484375 -0.00125 0.002953125 0.0238907552094
78 1 -0.032484375 -0.00125 0.004134375 0.00011360701435
79 1 -0.032484375 -0.00125 0.005315625 2.71090775321e-05
80 1 -0.032484375 -0.00125 0.006496875 1.80051522229e-05
81 1 -0.032484375 -0.00125 0.007678125 0.0146226858816
82 1 -0.032484375 -0.00125 0.008859375 0.132375265629
83 1 -0.032484375 -0.00125 0.010040625 0.120837641297
84 1 -0.032484375 -0.00125 0.011221875 0.105754452624
85 1 -0.032484375 -0.00125 0.012403125 0.101270940375
86 1 -0.032484375 -0.00125 0.013584375 0.00109112495426
87 1 -0.032484375 -0.00125 0.014765625 0.0170982260072
88 1 -0.032484375 -0.00125 0.015946875 0.0475390634562
89 1 -0.032484375 -0.00125 0.017128125 0.0267293752609
90 1 -0.032484375 -0.00125 0.018309375 0.00742277165282
91 1 -0.031303125 -0.00125 -0.019490625 6.21257772483e-07
92 1 -0.031303125 -0.00125 -0.018309375 1.54222353321e-05
93 1 -0.031303125 -0.00125 -0.017128125 0.000598980516944
94 1 -0.031303125 -0.00125 -0.015946875 0.000220708359819
95 1 -0.031303125 -0.00125 -0.014765625 0.000253381468773
96 1 -0.031303125 -0.00125 -0.013584375 0.000159867773761
97 1 -0.031303125 -0.00125 -0.012403125 0.0039399754536
98 1 -0.031303125 -0.00125 -0.011221875 0.00650870291835
99 1 -0.031303125 -0.00125 -0.010040625 0.0205595024244
100 1 -0.031303125 -0.00125 -0.008859375 0.00291807660251
101 1 -0.031303125 -0.00125 -0.007678125 0.000152894996427
102 1 -0.031303125 -0.00125 -0.006496875 7.30254104619e-05
103 1 -0.031303125 -0.00125 -0.005315625 0.000495548224239
104 1 -0.031303125 -0.00125 -0.004134375 0.00102677802714
105 1 -0.031303125 -0.00125 -0.002953125 0.00339966377764
106 1 -0.031303125 -0.00125 -0.001771875 0.026625712035
107 1 -0.031303125 -0.00125 -0.000590625 0.0617997790879
108 1 -0.031303125 -0.00125 0.000590625 0.0883200636268
109 1 -0.031303125 -0.00125 0.001771875 0.0336679147858
110 1 -0.031303125 -0.00125 0.002953125 0.00359389317908
111 1 -0.031303125 -0.00125 0.004134375 5.05999783647e-05
112 1 -0.031303125 -0.00125 0.005315625 4.1936582867e-05
113 1 -0.031303125 -0.00125 0.006496875 1.0610575596e-05
114 1 -0.031303125 -0.00125 0.007678125 0.00330566907695
115 1 -0.031303125 -0.00125 0.008859375 0.0372847166946
116 1 -0.031303125 -0.00125 0.010040625 0.037224757693
117 1 -0.031303125 -0.00125 0.011221875 0.0562837018956
118 1 -0.031303125 -0.00125 0.012403125 0.0867143227983
119 1 -0.031303125 -0.00125 0.013584375 0.0173902189165
120 1 -0.031303125 -0.00125 0.014765625 0.06427414803
121 1 -0.031303125 -0.00125 0.015946875 0.0635545537403
122 1 -0.031303125 -0.00125 0.017128125 0.0302046462249
123 1 -0.031303125 -0.00125 0.018309375 0.00524290231649
124 1 -0.031303125 -0.00125 0.019490625 0.00014271512366
125 1 -0.030121875 -0.00125 -0.020671875 5.52241340501e-11
126 1 -0.030121875 -0.00125 -0.019490625 2.33540953598e-08
127 1 -0.030121875 -0.00125 -0.018309375 7.54067427581e-06
128 1 -0.030121875 -0.00125 -0.017128125 0.000245151691871
129 1 -0.030121875 -0.00125 -0.015946875 0.000657765931603
130 1 -0.030121875 -0.00125 -0.014765625 0.00072198654244
131 1 -0.030121875 -0.00125 -0.013584375 0.0104155319868
132 1 -0.030121875 -0.00125 -0.012403125 0.0142863555918
133 1 -0.030121875 -0.00125 -0.011221875 0.00494008781474
134 1 -0.030121875 -0.00125 -0.010040625 0.00384242010393
135 1 -0.030121875 -0.00125 -0.008859375 0.000492573828502
136 1 -0.030121875 -0.00125 -0.007678125 9.52803130867e-05
137 1 -0.030121875 -0.00125 -0.006496875 1.15957695252e-05
138 1 -0.030121875 -0.00125 -0.005315625 5.48895082803e-05
139 1 -0.030121875 -0.00125 -0.004134375 0.000197103694728
140 1 -0.030121875 -0.00125 -0.002953125 0.00066246206414
141 1 -0.030121875 -0.00125 -0.001771875 0.00977299094624
142 1 -0.030121875 -0.00125 -0.000590625 0.0119081409917
143 1 -0.030121875 -0.00125 0.000590625 0.0269157270788
144 1 -0.030121875 -0.00125 0.001771875 0.00310902580613
145 1 -0.030121875 -0.00125 0.002953125 0.000310688194148
146 1 -0.030121875 -0.00125 0.004134375 8.736542406e-07
147 1 -0.030121875 -0.00125 0.005315625 1.37954458803e-06
148 1 -0.030121875 -0.00125 0.006496875 5.08109069033e-06
149 1 -0.030121875 -0.00125 0.007678125 0.000557581711053
150 1 -0.030121875 -0.00125 0.008859375 0.00372283600192
151 1 -0.030121875 -0.00125 0.010040625 0.00875940834718
152 1 -0.030121875 -0.00125 0.011221875 0.0114872313761
153 1 -0.030121875 -0.00125 0.012403125 0.0526287238854
154 1 -0.030121875 -0.00125 0.013584375 0.029288074862
155 1 -0.030121875 -0.00125 0.014765625 0.0540063804505
156 1 -0.030121875 -0.00125 0.015946875 0.105632804366
157 1 -0.030121875 -0.00125 0.017128125 0.0602753091711
158 1 -0.030121875 -0.00125 0.018309375 0.0247927294697
159 1 -0.030121875 -0.00125 0.019490625 0.000773515243225
160 1 -0.030121875 -0.00125 0.020671875 5.3336370423e-07
161 1 -0.028940625 -0.00125 -0.021853125 0.00012866198653
162 1 -0.028940625 -0.00125 -0.020671875 3.40529957363e-06
163 1 -0.028940625 -0.00125 -0.019490625 2.46759458451e-06
164 1 -0.028940625 -0.00125 -0.018309375 0.000158782579773
165 1 -0.028940625 -0.00125 -0.017128125 0.00153265079254
166 1 -0.028940625 -0.00125 -0.015946875 0.00218476666634
167 1 -0.028940625 -0.00125 -0.014765625 0.00831340641826
168 1 -0.028940625 -0.00125 -0.013584375 0.0116944087445
169 1 -0.028940625 -0.00125 -0.012403125 0.0148570606145
170 1 -0.028940625 -0.00125 -0.011221875 0.0109950957987
171 1 -0.028940625 -0.00125 -0.010040625 0.00125511280206
172 1 -0.028940625 -0.00125 -0.008859375 0.000143810086427
173 1 -0.028940625 -0.00125 -0.007678125 3.01472887795e-05
174 1 -0.028940625 -0.00125 -0.006496875 2.69035887334e-05
175 1 -0.028940625 -0.00125 -0.005315625 2.43869173771e-06
176 1 -0.028940625 -0.00125 -0.004134375 0.000154163080025
177 1 -0.028940625 -0.00125 -0.002953125 0.000941059048093
178 1 -0.028940625 -0.00125 -0.001771875 0.000889963813173
179 1 -0.028940625 -0.00125 -0.000590625 0.0045890836542
180 1 -0.028940625 -0.00125 0.000590625 0.000152167046628
181 1 -0.028940625 -0.00125 0.001771875 2.05057552466e-05
182 1 -0.028940625 -0.00125 0.002953125 3.15014011412e-05
183 1 -0.028940625 -0.00125 0.004134375 4.08155774095e-06
184 1 -0.028940625 -0.00125 0.005315625 1.43238264143e-05
185 1 -0.028940625 -0.00125 0.006496875 2.34407344742e-05
186 1 -0.028940625 -0.00125 0.007678125 2.38617149555e-05
187 1 -0.028940625 -0.00125 0.008859375 2.29822158247e-05
188 1 -0.028940625 -0.00125 0.010040625 0.000100141211879
189 1 -0.028940625 -0.00125 0.011221875 0.00136826123233
190 1 -0.028940625 -0.00125 0.012403125 0.00374135484124
191 1 -0.028940625 -0.00125 0.013584375 0.00361373594377
192 1 -0.028940625 -0.00125 0.014765625 0.021071464875
193 1 -0.028940625 -0.00125 0.015946875 0.0784501942465
194 1 -0.028940625 -0.00125 0.017128125 0.0932432876965
195 1 -0.028940625 -0.00125 0.018309375 0.0750026132647
196 1 -0.028940625 -0.00125 0.019490625 0.00193115452699
197 1 -0.028940625 -0.00125 0.020671875 3.53983429609e-05
198 1 -0.028940625 -0.00125 0.021853125 0.000385118908258
199 1 -0.027759375 -0.00125 -0.024215625 1.99898805051e-10
200 1 -0.027759375 -0.00125 -0.023034375 5.94991427999e-06
201 1 -0.027759375 -0.00125 -0.021853125 0.000534019294963
202 1 -0.027759375 -0.00125 -0.020671875 2.41308637721e-07
203 1 -0.027759375 -0.00125 -0.019490625 9.26134797699e-07
204 1 -0.027759375 -0.00125 -0.018309375 0.000311288049935
205 1 -0.027759375 -0.00125 -0.017128125 0.00675731257438
206 1 -0.027759375 -0.00125 -0.015946875 0.00347182167526
207 1 -0.027759375 -0.00125 -0.014765625 0.0135886511229
208 1 -0.027759375 -0.00125 -0.013584375 0.0120531610452
209 1 -0.027759375 -0.00125 -0.012403125 0.0310355965332
210 1 -0.027759375 -0.00125 -0.011221875 0.0420581247866
211 1 -0.027759375 -0.00125 -0.010040625 0.00697991747797
212 1 -0.027759375 -0.00125 -0.008859375 0.000720373616189
213 1 -0.027759375 -0.00125 -0.007678125 0.000195048364499
214 1 -0.027759375 -0.00125 -0.006496875 1.97441996956e-05
215 1 -0.027759375 -0.00125 -0.005315625 1.03085824017e-05
216 1 -0.027759375 -0.00125 -0.004134375 0.000139551779413
217 1 -0.027759375 -0.00125 -0.002953125 0.0010325267767
218 1 -0.027759375 -0.00125 -0.001771875 0.00281160687
219 1 -0.027759375 -0.00125 -0.000590625 0.01324298979
220 1 -0.027759375 -0.00125 0.000590625 0.00830728575708
221 1 -0.027759375 -0.00125 0.001771875 0.00171059724913
222 1 -0.027759375 -0.00125 0.002953125 0.00152743457952
223 1 -0.027759375 -0.00125 0.004134375 9.49252014684e-05
224 1 -0.027759375 -0.00125 0.005315625 0.000167979515205
225 1 -0.027759375 -0.00125 0.006496875 6.17480467223e-05
226 1 -0.027759375 -0.00125 0.007678125 0.000140152864018
227 1 -0.027759375 -0.00125 0.008859375 0.000278154129604
228 1 -0.027759375 -0.00125 0.010040625 0.000156322872663
229 1 -0.027759375 -0.00125 0.011221875 0.000320574226868
230 1 -0.027759375 -0.00125 0.012403125 0.00305558571992
231 1 -0.027759375 -0.00125 0.013584375 0.0072594138816
232 1 -0.027759375 -0.00125 0.014765625 0.0495242922097
233 1 -0.027759375 -0.00125 0.015946875 0.0457743903499
234 1 -0.027759375 -0.00125 0.017128125 0.101199496817
235 1 -0.027759375 -0.00125 0.018309375 0.0630343955818
236 1 -0.027759375 -0.00125 0.019490625 0.00251416116285
237 1 -0.027759375 -0.00125 0.020671875 0.000344029696085
238 1 -0.027759375 -0.00125 0.021853125 9.8653490439e-05
239 1 -0.027759375 -0.00125 0.023034375 9.19007693984e-07
240 1 -0.027759375 -0.00125 0.024215625 2.78232659633e-11
241 1 -0.026578125 -0.00125 -0.026578125 3.2243275993e-11
242 1 -0.026578125 -0.00125 -0.025396875 2.4650383737e-12
243 1 -0.026578125 -0.00125 -0.024215625 2.24617389022e-12
244 1 -0.026578125 -0.00125 -0.023034375 7.38678340214e-10
245 1 -0.026578125 -0.00125 -0.021853125 7.0241998941e-07
246 1 -0.026578125 -0.00125 -0.020671875 1.47541493922e-05
247 1 -0.026578125 -0.00125 -0.019490625 5.40990519143e-05
248 1 -0.026578125 -0.00125 -0.018309375 0.000348653060779
249 1 -0.026578125 -0.00125 -0.017128125 0.00450531870456
250 1 -0.026578125 -0.00125 -0.015946875 0.0154210139651
251 1 -0.026578125 -0.00125 -0.014765625 0.0138333768682
252 1 -0.026578125 -0.00125 -0.013584375 0.0258551720988
253 1 -0.026578125 -0.00125 -0.012403125 0.0316728162922
254 1 -0.026578125 -0.00125 -0.011221875 0.0306774423343
255 1 -0.026578125 -0.00125 -0.010040625 0.00811776314759
256 1 -0.026578125 -0.00125 -0.008859375 0.00272379262072
257 1 -0.026578125 -0.00125 -0.007678125 0.00069252363264
258 1 -0.026578125 -0.00125 -0.006496875 0.000306785771585
259 1 -0.026578125 -0.00125 -0.005315625 0.000324783176326
260 1 -0.026578125 -0.00125 -0.004134375 0.00231134205479
261 1 -0.026578125 -0.00125 -0.002953125 0.00474024242254
262 1 -0.026578125 -0.00125 -0.001771875 0.00977293930952
263 1 -0.026578125 -0.00125 -0.000590625 0.0259009165506
264 1 -0.026578125 -0.00125 0.000590625 0.0228849169351
265 1 -0.026578125 -0.00125 0.001771875 0.00879583390859
266 1 -0.026578125 -0.00125 0.002953125 0.0125471264049
267 1 -0.026578125 -0.00125 0.004134375 0.00744412682771
268 1 -0.026578125 -0.00125 0.005315625 0.00400216508417
269 1 -0.026578125 -0.00125 0.006496875 0.000286818943039
270 1 -0.026578125 -0.00125 0.007678125 0.000688027409156
271 1 -0.026578125 -0.00125 0.008859375 0.000489122387567
272 1 -0.026578125 -0.00125 0.010040625 0.000847483780559
273 1 -0.026578125 -0.00125 0.011221875 0.000746535064505
274 1 -0.026578125 -0.00125 0.012403125 0.00180088851934
275 1 -0.026578125 -0.00125 0.013584375 0.0138737279233
276 1 -0.026578125 -0.00125 0.014765625 0.0620572354337
277 1 -0.026578125 -0.00125 0.015946875 0.163807894406
278 1 -0.026578125 -0.00125 0.017128125 0.161588517385
279 1 -0.026578125 -0.00125 0.018309375 0.0961539292447
280 1 -0.026578125 -0.00125 0.019490625 0.00963136929553
281 1 -0.026578125 -0.00125 0.020671875 0.000834466245278
282 1 -0.026578125 -0.00125 0.021853125 1.4884896123e-05
283 1 -0.026578125 -0.00125 0.023034375 2.50195962732e-08
284 1 -0.026578125 -0.00125 0.024215625 3.19822094568e-08
285 1 -0.026578125 -0.00125 0.025396875 8.0803855838e-08
286 1 -0.026578125 -0.00125 0.026578125 6.73454112866e-08
287 1 -0.025396875 -0.00125 -0.026578125 3.14653878127e-17
288 1 -0.025396875 -0.00125 -0.025396875 4.29641727177e-10
289 1 -0.025396875 -0.00125 -0.024215625 1.1323071437e-07
290 1 -0.025396875 -0.00125 -0.023034375 1.15766657902e-07
291 1 -0.025396875 -0.00125 -0.021853125 1.3989617486e-06
292 1 -0.025396875 -0.00125 -0.020671875 2.38866978926e-05
293 1 -0.025396875 -0.00125 -0.019490625 0.000200904028398
294 1 -0.025396875 -0.00125 -0.018309375 0.000689994844372
295 1 -0.025396875 -0.00125 -0.017128125 0.0085148955649
296 1 -0.025396875 -0.00125 -0.015946875 0.00991848851481
297 1 -0.025396875 -0.00125 -0.014765625 0.0339994032116
298 1 -0.025396875 -0.00125 -0.013584375 0.0816574061746
299 1 -0.025396875 -0.00125 -0.012403125 0.0815245938594
300 1 -0.025396875 -0.00125 -0.011221875 0.111779959646
301 1 -0.025396875 -0.00125 -0.010040625 0.0392229433782
302 1 -0.025396875 -0.00125 -0.008859375 0.0205875262871
303 1 -0.025396875 -0.00125 -0.007678125 0.00294805180795
304 1 -0.025396875 -0.00125 -0.006496875 0.00963380858314
305 1 -0.025396875 -0.00125 -0.005315625 0.00934604119145
306 1 -0.025396875 -0.00125 -0.004134375 0.00714778985246
307 1 -0.025396875 -0.00125 -0.002953125 0.0078375369342
308 1 -0.025396875 -0.00125 -0.001771875 0.00779355299352
309 1 -0.025396875 -0.00125 -0.000590625 0.0285249637637
310 1 -0.025396875 -0.00125 0.000590625 0.0412852669972
311 1 -0.025396875 -0.00125 0.001771875 0.0199598563919
312 1 -0.025396875 -0.00125 0.002953125 0.0286316854901
313 1 -0.025396875 -0.00125 0.004134375 0.0170893856175
314 1 -0.025396875 -0.00125 0.005315625 0.0326976860632
315 1 -0.025396875 -0.00125 0.006496875 0.0106920811529
316 1 -0.025396875 -0.00125 0.007678125 0.0140712334962
317 1 -0.025396875 -0.00125 0.008859375 0.00690705472902
318 1 -0.025396875 -0.00125 0.010040625 0.00258810021868
319 1 -0.025396875 -0.00125 0.011221875 0.00122024393435
320 1 -0.025396875 -0.00125 0.012403125 0.00686222163124
321 1 -0.025396875 -0.00125 0.013584375 0.0199662706148
322 1 -0.025396875 -0.00125 0.014765625 0.09848136207
323 1 -0.025396875 -0.00125 0.015946875 0.201282594133
324 1 -0.025396875 -0.00125 0.017128125 0.144196319356
325 1 -0.025396875 -0.00125 0.018309375 0.0865976832042
326 1 -0.025396875 -0.00125 0.019490625 0.00873559284362
327 1 -0.025396875 -0.00125 0.020671875 0.00144199088359
328 1 -0.025396875 -0.00125 0.021853125 0.000353440878679
329 1 -0.025396875 -0.00125 0.023034375 0.000127765763598
330 1 -0.025396875 -0.00125 0.024215625 8.40356301017e-06
331 1 -0.025396875 -0.00125 0.025396875 7.53780489748e-05
332 1 -0.025396875 -0.00125 0.026578125 9.74031821783e-12
333 1 -0.024215625 -0.00125 -0.027759375 1.03984811299e-09
334 1 -0.024215625 -0.00125 -0.026578125 3.88941832726e-07
335 1 -0.024215625 -0.00125 -0.025396875 4.35035456647e-06
336 1 -0.024215625 -0.00125 -0.024215625 0.000466081574543
337 1 -0.024215625 -0.00125 -0.023034375 0.000410570306504
338 1 -0.024215625 -0.00125 -0.021853125 0.000209237234327
339 1 -0.024215625 -0.00125 -0.020671875 0.000588737898391
340 1 -0.024215625 -0.00125 -0.019490625 0.000872622913602
341 1 -0.024215625 -0.00125 -0.018309375 0.00279378031181
342 1 -0.024215625 -0.00125 -0.017128125 0.0105322499872
343 1 -0.024215625 -0.00125 -0.015946875 0.0246106333879
344 1 -0.024215625 -0.00125 -0.014765625 0.0508374825207
345 1 -0.024215625 -0.00125 -0.013584375 0.075101600253
346 1 -0.024215625 -0.00125 -0.012403125 0.10593766388
347 1 -0.024215625 -0.00125 -0.011221875 0.105517258784
348 1 -0.024215625 -0.00125 -0.010040625 0.05270060629
349 1 -0.024215625 -0.00125 -0.008859375 0.0352150105426
350 1 -0.024215625 -0.00125 -0.007678125 0.0121543755556
351 1 -0.024215625 -0.00125 -0.006496875 0.0371395640777
352 1 -0.024215625 -0.00125 -0.005315625 0.0475285911626
353 1 -0.024215625 -0.00125 -0.004134375 0.0462704005502
354 1 -0.024215625 -0.00125 -0.002953125 0.0368938698267
355 1 -0.024215625 -0.00125 -0.001771875 0.0430303176648
356 1 -0.024215625 -0.00125 -0.000590625 0.0434500505356
357 1 -0.024215625 -0.00125 0.000590625 0.0681005067744
358 1 -0.024215625 -0.00125 0.001771875 0.0567270705717
359 1 -0.024215625 -0.00125 0.002953125 0.0345944736699
360 1 -0.024215625 -0.00125 0.004134375 0.0335570436863
361 1 -0.024215625 -0.00125 0.005315625 0.0447571893539
362 1 -0.024215625 -0.00125 0.006496875 0.0506796748416
363 1 -0.024215625 -0.00125 0.007678125 0.042993327042
364 1 -0.024215625 -0.00125 0.008859375 0.0108542538195
365 1 -0.024215625 -0.00125 0.010040625 0.0202645653774
366 1 -0.024215625 -0.00125 0.011221875 0.0142692249472
367 1 -0.024215625 -0.00125 0.012403125 0.0254818886199
368 1 -0.024215625 -0.00125 0.013584375 0.0548930487645
369 1 -0.024215625 -0.00125 0.014765625 0.12283170797
370 1 -0.024215625 -0.00125 0.015946875 0.215348900948
371 1 -0.024215625 -0.00125 0.017128125 0.171629702187
372 1 -0.024215625 -0.00125 0.018309375 0.105537400107
373 1 -0.024215625 -0.00125 0.019490625 0.0235815339742
374 1 -0.024215625 -0.00125 0.020671875 0.00639054485614
375 1 -0.024215625 -0.00125 0.021853125 0.00307654180813
376 1 -0.024215625 -0.00125 0.023034375 0.000600692201666
377 1 -0.024215625 -0.00125 0.024215625 3.79885653509e-05
378 1 -0.024215625 -0.00125 0.025396875 0.000157536106661
379 1 -0.024215625 -0.00125 0.026578125 2.97291164037e-06
380 1 -0.024215625 -0.00125 0.027759375 2.98245258018e-09
381 1 -0.023034375 -0.00125 -0.027759375 5.91338302618e-05
382 1 -0.023034375 -0.00125 -0.026578125 0.000274520507272
383 1 -0.023034375 -0.00125 -0.025396875 0.00782815021657
384 1 -0.023034375 -0.00125 -0.024215625 0.00865017556111
385 1 -0.023034375 -0.00125 -0.023034375 0.00546549284335
386 1 -0.023034375 -0.00125 -0.021853125 0.000866945271521
387 1 -0.023034375 -0.00125 -0.020671875 0.00356330274733
388 1 -0.023034375 -0.00125 -0.019490625 0.0062474777778
389 1 -0.023034375 -0.00125 -0.018309375 0.00423497940358
390 1 -0.023034375 -0.00125 -0.017128125 0.00829707200863
391 1 -0.023034375 -0.00125 -0.015946875 0.0167111814626
392 1 -0.023034375 -0.00125 -0.014765625 0.0370940549089
393 1 -0.023034375 -0.00125 -0.013584375 0.104227989795
394 1 -0.023034375 -0.00125 -0.012403125 0.138527718426
395 1 -0.023034375 -0.00125 -0.011221875 0.141462294913
396 1 -0.023034375 -0.00125 -0.010040625 0.125292212279
397 1 -0.023034375 -0.00125 -0.008859375 0.128563359917
398 1 -0.023034375 -0.00125 -0.007678125 0.0706363185416
399 1 -0.023034375 -0.00125 -0.006496875 0.0560285537121
400 1 -0.023034375 -0.00125 -0.005315625 0.0558801705651
401 1 -0.023034375 -0.00125 -0.004134375 0.0288183494093
402 1 -0.023034375 -0.00125 -0.002953125 0.0567637775447
403 1 -0.023034375 -0.00125 -0.001771875 0.0728628144522
404 1 -0.023034375 -0.00125 -0.000590625 0.0433840303034
405 1 -0.023034375 -0.00125 0.000590625 0.0952898862485
406 1 -0.023034375 -0.00125 0.001771875 0.074637726163
407 1 -0.023034375 -0.00125 0.002953125 0.0822982881734
408 1 -0.023034375 -0.00125 0.004134375 0.0680651827627
409 1 -0.023034375 -0.00125 0.005315625 0.0799163940022
410 1 -0.023034375 -0.00125 0.006496875 0.0940438772204
411 1 -0.023034375 -0.00125 0.007678125 0.0789342212378
412 1 -0.023034375 -0.00125 0.008859375 0.0388125470592
413 1 -0.023034375 -0.00125 0.010040625 0.0396895913269
414 1 -0.023034375 -0.00125 0.011221875 0.0332116123177
415 1 -0.023034375 -0.00125 0.012403125 0.0503083112283
416 1 -0.023034375 -0.00125 0.013584375 0.0911324923702
417 1 -0.023034375 -0.00125 0.014765625 0.243614339286
418 1 -0.023034375 -0.00125 0.015946875 0.252794156906
419 1 -0.023034375 -0.00125 0.017128125 0.18325792811
420 1 -0.023034375 -0.00125 0.018309375 0.106750336724
421 1 -0.023034375 -0.00125 0.019490625 0.0409833225302
422 1 -0.023034375 -0.00125 0.020671875 0.024869479169
423 1 -0.023034375 -0.00125 0.021853125 0.0147887881582
424 1 -0.023034375 -0.00125 0.023034375 0.00822494353718
425 1 -0.023034375 -0.00125 0.024215625 0.0035629389387
426 1 -0.023034375 -0.00125 0.025396875 0.00458576331571
427 1 -0.023034375 -0.00125 0.026578125 0.000519531480382
428 1 -0.023034375 -0.00125 0.027759375 0.000273746305975
429 1 -0.021853125 -0.00125 -0.028940625 0.0109360419131
430 1 -0.021853125 -0.00125 -0.027759375 0.0334808215697
431 1 -0.021853125 -0.00125 -0.026578125 0.00839838833946
432 1 -0.021853125 -0.00125 -0.025396875 0.00796047860734
433 1 -0.021853125 -0.00125 -0.024215625 0.0270969482466
434 1 -0.021853125 -0.00125 -0.023034375 0.0107034881058
435 1 -0.021853125 -0.00125 -0.021853125 0.0114158153815
436 1 -0.021853125 -0.00125 -0.020671875 0.015128569108
437 1 -0.021853125 -0.00125 -0.019490625 0.00985931687843
438 1 -0.021853125 -0.00125 -0.018309375 0.0202079314569
439 1 -0.021853125 -0.00125 -0.017128125 0.0243131924215
440 1 -0.021853125 -0.00125 -0.015946875 0.0419601368617
441 1 -0.021853125 -0.00125 -0.014765625 0.066741086859
442 1 -0.021853125 -0.00125 -0.013584375 0.106401179452
443 1 -0.021853125 -0.00125 -0.012403125 0.209178860035
444 1 -0.021853125 -0.00125 -0.011221875 0.187172430366
445 1 -0.021853125 -0.00125 -0.010040625 0.176113126051
446 1 -0.021853125 -0.00125 -0.008859375 0.136593715527
447 1 -0.021853125 -0.00125 -0.007678125 0.120908394422
448 1 -0.021853125 -0.00125 -0.006496875 0.0739651509174
449 1 -0.021853125 -0.00125 -0.005315625 0.0897474162319
450 1 -0.021853125 -0.00125 -0.004134375 0.0737195437273
451 1 -0.021853125 -0.00125 -0.002953125 0.0828060285861
452 1 -0.021853125 -0.00125 -0.001771875 0.0569338358722
453 1 -0.021853125 -0.00125 -0.000590625 0.0600932787396
454 1 -0.021853125 -0.00125 0.000590625 0.0642237003871
455 1 -0.021853125 -0.00125 0.001771875 0.0785965459929
456 1 -0.021853125 -0.00125 0.002953125 0.116451202072
457 1 -0.021853125 -0.00125 0.004134375 0.100352033972
458 1 -0.021853125 -0.00125 0.005315625 0.108079986292
459 1 -0.021853125 -0.00125 0.006496875 0.0864519775814
460 1 -0.021853125 -0.00125 0.007678125 0.0825485032099
461 1 -0.021853125 -0.00125 0.008859375 0.0865216993475
462 1 -0.021853125 -0.00125 0.010040625 0.0794010526737
463 1 -0.021853125 -0.00125 0.011221875 0.0662313357001
464 1 -0.021853125 -0.00125 0.012403125 0.09971931937
465 1 -0.021853125 -0.00125 0.013584375 0.151145400721
466 1 -0.021853125 -0.00125 0.014765625 0.241505233176
467 1 -0.021853125 -0.00125 0.015946875 0.28473747554
468 1 -0.021853125 -0.00125 0.017128125 0.200648434848
469 1 -0.021853125 -0.00125 0.018309375 0.111536619794
470 1 -0.021853125 -0.00125 0.019490625 0.0674271379142
471 1 -0.021853125 -0.00125 0.020671875 0.0195674766129
472 1 -0.021853125 -0.00125 0.021853125 0.0225896832919
473 1 -0.021853125 -0.00125 0.023034375 0.0183558523516
474 1 -0.021853125 -0.00125 0.024215625 0.00923434506052
475 1 -0.021853125 -0.00125 0.025396875 0.00809563667625
476 1 -0.021853125 -0.00125 0.026578125 0.00377105292525
477 1 -0.021853125 -0.00125 0.027759375 0.0124544835779
478 1 -0.021853125 -0.00125 0.028940625 0.0179267669087
479 1 -0.020671875 -0.00125 -0.030121875 2.18395495843e-06
480 1 -0.020671875 -0.00125 -0.028940625 0.000112922169069
481 1 -0.020671875 -0.00125 -0.027759375 0.0240571184165
482 1 -0.020671875 -0.00125 -0.026578125 0.0140476081851
483 1 -0.020671875 -0.00125 -0.025396875 0.0111111373891
484 1 -0.020671875 -0.00125 -0.024215625 0.00530435058841
485 1 -0.020671875 -0.00125 -0.023034375 0.0258314107219
486 1 -0.020671875 -0.00125 -0.021853125 0.0234670109822
487 1 -0.020671875 -0.00125 -0.020671875 0.0417030263841
488 1 -0.020671875 -0.00125 -0.019490625 0.0535657472853
489 1 -0.020671875 -0.00125 -0.018309375 0.0691894329995
490 1 -0.020671875 -0.00125 -0.017128125 0.054435508985
491 1 -0.020671875 -0.00125 -0.015946875 0.0786669977896
492 1 -0.020671875 -0.00125 -0.014765625 0.0807813259669
493 1 -0.020671875 -0.00125 -0.013584375 0.117683066916
494 1 -0.020671875 -0.00125 -0.012403125 0.238243254921
495 1 -0.020671875 -0.00125 -0.011221875 0.274181723965
496 1 -0.020671875 -0.00125 -0.010040625 0.26793541455
497 1 -0.020671875 -0.00125 -0.008859375 0.270379442516
498 1 -0.020671875 -0.00125 -0.007678125 0.209833147748
499 1 -0.020671875 -0.00125 -0.006496875 0.143388439611
500 1 -0.020671875 -0.00125 -0.005315625 0.114851011937
501 1 -0.020671875 -0.00125 -0.004134375 0.0923432648202
502 1 -0.020671875 -0.00125 -0.002953125 0.102350206024
503 1 -0.020671875 -0.00125 -0.001771875 0.0738318891968
504 1 -0.020671875 -0.00125 -0.000590625 0.0781780538015
505 1 -0.020671875 -0.00125 0.000590625 0.0574087331034
506 1 -0.020671875 -0.00125 0.001771875 0.0809140595514
507 1 -0.020671875 -0.00125 0.002953125 0.0957477272727
508 1 -0.020671875 -0.00125 0.004134375 0.0997263609302
509 1 -0.020671875 -0.00125 0.005315625 0.129616085353
510 1 -0.020671875 -0.00125 0.006496875 0.116214652473
511 1 -0.020671875 -0.00125 0.007678125 0.114397291651
512 1 -0.020671875 -0.00125 0.008859375 0.111588218845
513 1 -0.020671875 -0.00125 0.010040625 0.0851799647406
514 1 -0.020671875 -0.00125 0.011221875 0.107145304603
515 1 -0.020671875 -0.00125 0.012403125 0.204175466083
516 1 -0.020671875 -0.00125 0.013584375 0.234463202232
517 1 -0.020671875 -0.00125 0.014765625 0.318330644031
518 1 -0.020671875 -0.00125 0.015946875 0.28215072934
519 1 -0.020671875 -0.00125 0.017128125 0.220628656167
520 1 -0.020671875 -0.00125 0.018309375 0.150877106579
521 1 -0.020671875 -0.00125 0.019490625 0.0935371713184
522 1 -0.020671875 -0.00125 0.020671875 0.0662941915138