ITEM: TIMESTEP
0
ITEM: NUMBER OF ATOMS
3080
ITEM: BOX BOUNDS ss ss ss
-3.7007399999999996e-02 3.7007399999999996e-02
-2.0002499999999999e-03 2.5000000000000004e-07
-3.7007399999999996e-02 3.7007399999999996e-02
ITEM: ATOMS id type x y z c_1
0 1 -0.037209375 -0.00125 -0.000590625 0.239316609323
1 1 -0.036028125 -0.00125 -0.007678125 0.042680385868
2 1 -0.036028125 -0.00125 -0.006496875 0.00624854380883
3 1 -0.036028125 -0.00125 -0.005315625 0.00131239557629
4 1 -0.036028125 -0.00125 -0.004134375 0.0118100545429
5 1 -0.036028125 -0.00125 -0.002953125 0.0501941468371
6 1 -0.036028125 -0.00125 -0.001771875 0.0602596067842
7 1 -0.036028125 -0.00125 -0.000590625 0.0457758100061
8 1 -0.036028125 -0.00125 0.000590625 0.0505075279875
9 1 -0.036028125 -0.00125 0.001771875 0.16096122475
10 1 -0.036028125 -0.00125 0.002953125 0.127636343816
11 1 -0.036028125 -0.00125 0.004134375 0.151800502781
12 1 -0.036028125 -0.00125 0.005315625 0.0510952964491
13 1 -0.036028125 -0.00125 0.006496875 0.0166498304206
14 1 -0.036028125 -0.00125 0.007678125 0.0393702145551
15 1 -0.034846875 -0.00125 -0.011221875 0.0847143277746
16 1 -0.034846875 -0.00125 -0.010040625 0.142054035749
17 1 -0.034846875 -0.00125 -0.008859375 0.313157498965
18 1 -0.034846875 -0.00125 -0.007678125 0.046512637223
19 1 -0.034846875 -0.00125 -0.006496875 0.0142107578979
20 1 -0.034846875 -0.00125 -0.005315625 0.00719659283279
21 1 -0.034846875 -0.00125 -0.004134375 0.0236414699232
22 1 -0.034846875 -0.00125 -0.002953125 0.0972554740626
23 1 -0.034846875 -0.00125 -0.001771875 0.0563529345086
24 1 -0.034846875 -0.00125 -0.000590625 0.11158035712
25 1 -0.034846875 -0.00125 0.000590625 0.220766690042
26 1 -0.034846875 -0.00125 0.001771875 0.32930007887
27 1 -0.034846875 -0.00125 0.002953125 0.29135115227
28 1 -0.034846875 -0.00125 0.004134375 0.223359686607
29 1 -0.034846875 -0.00125 0.005315625 0.066002040432
30 1 -0.034846875 -0.00125 0.006496875 0.0145209924055
31 1 -0.034846875 -0.00125 0.007678125 0.15088188233
32 1 -0.034846875 -0.00125 0.008859375 0.41499449475
33 1 -0.034846875 -0.00125 0.010040625 0.253403611533
34 1 -0.034846875 -0.00125 0.011221875 0.195771867018
35 1 -0.033665625 -0.00125 -0.013584375 0.0417487559039
36 1 -0.033665625 -0.00125 -0.012403125 0.190721327966
37 1 -0.033665625 -0.00125 -0.011221875 0.201932716752
38 1 -0.033665625 -0.00125 -0.010040625 0.276877176532
39 1 -0.033665625 -0.00125 -0.008859375 0.29885276729
40 1 -0.033665625 -0.00125 -0.007678125 0.147653917472
41 1 -0.033665625 -0.00125 -0.006496875 0.103462476635
42 1 -0.033665625 -0.00125 -0.005315625 0.0643373095918
43 1 -0.033665625 -0.00125 -0.004134375 0.125290337195
44 1 -0.033665625 -0.00125 -0.002953125 0.15574236434
45 1 -0.033665625 -0.00125 -0.001771875 0.155120818282
46 1 -0.033665625 -0.00125 -0.000590625 0.183060011354
47 1 -0.033665625 -0.00125 0.000590625 0.253175975428
48 1 -0.033665625 -0.00125 0.001771875 0.356577105769
49 1 -0.033665625 -0.00125 0.002953125 0.427260423705
50 1 -0.033665625 -0.00125 0.004134375 0.466654827694
51 1 -0.033665625 -0.00125 0.005315625 0.281088441621
52 1 -0.033665625 -0.00125 0.006496875 0.105807099481
53 1 -0.033665625 -0.00125 0.007678125 0.332721075979
54 1 -0.033665625 -0.00125 0.008859375 0.558567947542
55 1 -0.033665625 -0.00125 0.010040625 0.426898611407
56 1 -0.033665625 -0.00125 0.011221875 0.39179230622
57 1 -0.033665625 -0.00125 0.012403125 0.296593599699
58 1 -0.033665625 -0.00125 0.013584375 0.103804687641
59 1 -0.032484375 -0.00125 -0.018309375 0.000713369760766
60 1 -0.032484375 -0.00125 -0.017128125 0.0137375996909
61 1 -0.032484375 -0.00125 -0.015946875 0.015322651579
62 1 -0.032484375 -0.00125 -0.014765625 0.0522761420047
63 1 -0.032484375 -0.00125 -0.013584375 0.0909969516864
64 1 -0.032484375 -0.00125 -0.012403125 0.173745898347
65 1 -0.032484375 -0.00125 -0.011221875 0.293774489133
66 1 -0.032484375 -0.00125 -0.010040625 0.343256261743
67 1 -0.032484375 -0.00125 -0.008859375 0.409445057916
68 1 -0.032484375 -0.00125 -0.007678125 0.327186785182
69 1 -0.032484375 -0.00125 -0.006496875 0.22211253169
70 1 -0.032484375 -0.00125 -0.005315625 0.23617222864
71 1 -0.032484375 -0.00125 -0.004134375 0.247111018462
72 1 -0.032484375 -0.00125 -0.002953125 0.321826970603
73 1 -0.032484375 -0.00125 -0.001771875 0.265692720716
74 1 -0.032484375 -0.00125 -0.000590625 0.340088259061
75 1 -0.032484375 -0.00125 0.000590625 0.50701311222
76 1 -0.032484375 -0.00125 0.001771875 0.582773760223
77 1 -0.032484375 -0.00125 0.002953125 0.596627381353
78 1 -0.032484375 -0.00125 0.004134375 0.515798016178
79 1 -0.032484375 -0.00125 0.005315625 0.483622013083
80 1 -0.032484375 -0.00125 0.006496875 0.410217950868
81 1 -0.032484375 -0.00125 0.007678125 0.528794794372
82 1 -0.032484375 -0.00125 0.008859375 0.621264349379
83 1 -0.032484375 -0.00125 0.010040625 0.50323817502
84 1 -0.032484375 -0.00125 0.011221875 0.482652367992
85 1 -0.032484375 -0.00125 0.012403125 0.385753944514
86 1 -0.032484375 -0.00125 0.013584375 0.220049323131
87 1 -0.032484375 -0.00125 0.014765625 0.22876474919
88 1 -0.032484375 -0.00125 0.015946875 0.118137492012
89 1 -0.032484375 -0.00125 0.017128125 0.0742197516108
90 1 -0.032484375 -0.00125 0.018309375 0.0558575445889
91 1 -0.031303125 -0.00125 -0.019490625 0.00100771568367
92 1 -0.031303125 -0.00125 -0.018309375 0.0190479675542
93 1 -0.031303125 -0.00125 -0.017128125 0.0245827417966
94 1 -0.031303125 -0.00125 -0.015946875 0.0731138529366
95 1 -0.031303125 -0.00125 -0.014765625 0.087632358318
96 1 -0.031303125 -0.00125 -0.013584375 0.103247197458
97 1 -0.031303125 -0.00125 -0.012403125 0.242890922138
98 1 -0.031303125 -0.00125 -0.011221875 0.270007084107
99 1 -0.031303125 -0.00125 -0.010040625 0.302018852041
100 1 -0.031303125 -0.00125 -0.008859375 0.35978391557
101 1 -0.031303125 -0.00125 -0.007678125 0.426811598757
102 1 -0.031303125 -0.00125 -0.006496875 0.344744290646
103 1 -0.031303125 -0.00125 -0.005315625 0.36095244067
104 1 -0.031303125 -0.00125 -0.004134375 0.270613615685
105 1 -0.031303125 -0.00125 -0.002953125 0.30446791985
106 1 -0.031303125 -0.00125 -0.001771875 0.291191337033
107 1 -0.031303125 -0.00125 -0.000590625 0.328887776107
108 1 -0.031303125 -0.00125 0.000590625 0.370817418316
109 1 -0.031303125 -0.00125 0.001771875 0.518194953708
110 1 -0.031303125 -0.00125 0.002953125 0.484786916806
111 1 -0.031303125 -0.00125 0.004134375 0.341365481564
112 1 -0.031303125 -0.00125 0.005315625 0.386822792891
113 1 -0.031303125 -0.00125 0.006496875 0.511154878907
114 1 -0.031303125 -0.00125 0.007678125 0.565760616671
115 1 -0.031303125 -0.00125 0.008859375 0.576772009423
116 1 -0.031303125 -0.00125 0.010040625 0.599799162062
117 1 -0.031303125 -0.00125 0.011221875 0.550326096195
118 1 -0.031303125 -0.00125 0.012403125 0.503968931858
119 1 -0.031303125 -0.00125 0.013584375 0.348783656062
120 1 -0.031303125 -0.00125 0.014765625 0.249339705376
121 1 -0.031303125 -0.00125 0.015946875 0.170434668606
122 1 -0.031303125 -0.00125 0.017128125 0.114785422487
123 1 -0.031303125 -0.00125 0.018309375 0.0809366122817
124 1 -0.031303125 -0.00125 0.019490625 0.0211231220493
125 1 -0.030121875 -0.00125 -0.020671875 2.26126370784e-06
126 1 -0.030121875 -0.00125 -0.019490625 0.000657669663132
127 1 -0.030121875 -0.00125 -0.018309375 0.0184683059812
128 1 -0.030121875 -0.00125 -0.017128125 0.0423731952321
129 1 -0.030121875 -0.00125 -0.015946875 0.100599036711
130 1 -0.030121875 -0.00125 -0.014765625 0.134259159003
131 1 -0.030121875 -0.00125 -0.013584375 0.180348408304
132 1 -0.030121875 -0.00125 -0.012403125 0.32855547922
133 1 -0.030121875 -0.00125 -0.011221875 0.385744356712
134 1 -0.030121875 -0.00125 -0.010040625 0.407977542835
135 1 -0.030121875 -0.00125 -0.008859375 0.413686020619
136 1 -0.030121875 -0.00125 -0.007678125 0.44114618139
137 1 -0.030121875 -0.00125 -0.006496875 0.458512570505
138 1 -0.030121875 -0.00125 -0.005315625 0.389569093998
139 1 -0.030121875 -0.00125 -0.004134375 0.33508793717
140 1 -0.030121875 -0.00125 -0.002953125 0.291215503396
141 1 -0.030121875 -0.00125 -0.001771875 0.283590748941
142 1 -0.030121875 -0.00125 -0.000590625 0.297522667722
143 1 -0.030121875 -0.00125 0.000590625 0.290196417499
144 1 -0.030121875 -0.00125 0.001771875 0.374386484682
145 1 -0.030121875 -0.00125 0.002953125 0.447985407322
146 1 -0.030121875 -0.00125 0.004134375 0.355785596468
147 1 -0.030121875 -0.00125 0.005315625 0.417463242948
148 1 -0.030121875 -0.00125 0.006496875 0.437282395387
149 1 -0.030121875 -0.00125 0.007678125 0.474034597688
150 1 -0.030121875 -0.00125 0.008859375 0.539030744792
151 1 -0.030121875 -0.00125 0.010040625 0.615900209768
152 1 -0.030121875 -0.00125 0.011221875 0.589820890552
153 1 -0.030121875 -0.00125 0.012403125 0.572447551316
154 1 -0.030121875 -0.00125 0.013584375 0.450007952743
155 1 -0.030121875 -0.00125 0.014765625 0.399024365453
156 1 -0.030121875 -0.00125 0.015946875 0.231436100663
157 1 -0.030121875 -0.00125 0.017128125 0.175647518111
158 1 -0.030121875 -0.00125 0.018309375 0.171276932074
159 1 -0.030121875 -0.00125 0.019490625 0.0635857553461
160 1 -0.030121875 -0.00125 0.020671875 0.0113530263128
161 1 -0.028940625 -0.00125 -0.021853125 0.0312820601423
162 1 -0.028940625 -0.00125 -0.020671875 0.0115454424779
163 1 -0.028940625 -0.00125 -0.019490625 0.00418359941875
164 1 -0.028940625 -0.00125 -0.018309375 0.0406085006785
165 1 -0.028940625 -0.00125 -0.017128125 0.0828891590704
166 1 -0.028940625 -0.00125 -0.015946875 0.106585796081
167 1 -0.028940625 -0.00125 -0.014765625 0.178966793131
168 1 -0.028940625 -0.00125 -0.013584375 0.200726588411
169 1 -0.028940625 -0.00125 -0.012403125 0.267443147475
170 1 -0.028940625 -0.00125 -0.011221875 0.407355778515
171 1 -0.028940625 -0.00125 -0.010040625 0.476298160365
172 1 -0.028940625 -0.00125 -0.008859375 0.456739029472
173 1 -0.028940625 -0.00125 -0.007678125 0.425269253075
174 1 -0.028940625 -0.00125 -0.006496875 0.4671670564
175 1 -0.028940625 -0.00125 -0.005315625 0.397110261384
176 1 -0.028940625 -0.00125 -0.004134375 0.485925090199
177 1 -0.028940625 -0.00125 -0.002953125 0.34421366947
178 1 -0.028940625 -0.00125 -0.001771875 0.331377403819
179 1 -0.028940625 -0.00125 -0.000590625 0.30891955317
180 1 -0.028940625 -0.00125 0.000590625 0.316668473969
181 1 -0.028940625 -0.00125 0.001771875 0.266611885911
182 1 -0.028940625 -0.00125 0.002953125 0.339273551333
183 1 -0.028940625 -0.00125 0.004134375 0.260007868628
184 1 -0.028940625 -0.00125 0.005315625 0.360511676253
185 1 -0.028940625 -0.00125 0.006496875 0.402508205011
186 1 -0.028940625 -0.00125 0.007678125 0.410472573349
187 1 -0.028940625 -0.00125 0.008859375 0.45328970834
188 1 -0.028940625 -0.00125 0.010040625 0.552802804463
189 1 -0.028940625 -0.00125 0.011221875 0.615906850704
190 1 -0.028940625 -0.00125 0.012403125 0.535724537763
191 1 -0.028940625 -0.00125 0.013584375 0.465834335304
192 1 -0.028940625 -0.00125 0.014765625 0.407619373579
193 1 -0.028940625 -0.00125 0.015946875 0.32642290578
194 1 -0.028940625 -0.00125 0.017128125 0.270572728549
195 1 -0.028940625 -0.00125 0.018309375 0.224282753181
196 1 -0.028940625 -0.00125 0.019490625 0.107475649316
197 1 -0.028940625 -0.00125 0.020671875 0.0604761053644
198 1 -0.028940625 -0.00125 0.021853125 0.156745860647
199 1 -0.027759375 -0.00125 -0.024215625 6.34989888509e-09
200 1 -0.027759375 -0.00125 -0.023034375 0.00477329076682
201 1 -0.027759375 -0.00125 -0.021853125 0.0169703193434
202 1 -0.027759375 -0.00125 -0.020671875 0.0203958329434
203 1 -0.027759375 -0.00125 -0.019490625 0.0223061659571
204 1 -0.027759375 -0.00125 -0.018309375 0.165643664129
205 1 -0.027759375 -0.00125 -0.017128125 0.181493223007
206 1 -0.027759375 -0.00125 -0.015946875 0.1400384148
207 1 -0.027759375 -0.00125 -0.014765625 0.201625422727
208 1 -0.027759375 -0.00125 -0.013584375 0.251115885277
209 1 -0.027759375 -0.00125 -0.012403125 0.292332714789
210 1 -0.027759375 -0.00125 -0.011221875 0.412331286839
211 1 -0.027759375 -0.00125 -0.010040625 0.348424762185
212 1 -0.027759375 -0.00125 -0.008859375 0.392626608275
213 1 -0.027759375 -0.00125 -0.007678125 0.393143150678
214 1 -0.027759375 -0.00125 -0.006496875 0.584536753354
215 1 -0.027759375 -0.00125 -0.005315625 0.587739144739
216 1 -0.027759375 -0.00125 -0.004134375 0.514474415085
217 1 -0.027759375 -0.00125 -0.002953125 0.360286416831
218 1 -0.027759375 -0.00125 -0.001771875 0.330238991355
219 1 -0.027759375 -0.00125 -0.000590625 0.301591675362
220 1 -0.027759375 -0.00125 0.000590625 0.318565264599
221 1 -0.027759375 -0.00125 0.001771875 0.404334982837
222 1 -0.027759375 -0.00125 0.002953125 0.430030171594
223 1 -0.027759375 -0.00125 0.004134375 0.397448938144
224 1 -0.027759375 -0.00125 0.005315625 0.448591945018
225 1 -0.027759375 -0.00125 0.006496875 0.47073974197
226 1 -0.027759375 -0.00125 0.007678125 0.588695509335
227 1 -0.027759375 -0.00125 0.008859375 0.488102333286
228 1 -0.027759375 -0.00125 0.010040625 0.568921948502
229 1 -0.027759375 -0.00125 0.011221875 0.635427295604
230 1 -0.027759375 -0.00125 0.012403125 0.493155369127
231 1 -0.027759375 -0.00125 0.013584375 0.380834369351
232 1 -0.027759375 -0.00125 0.014765625 0.291741732871
233 1 -0.027759375 -0.00125 0.015946875 0.353371358291
234 1 -0.027759375 -0.00125 0.017128125 0.401114666125
235 1 -0.027759375 -0.00125 0.018309375 0.340757403571
236 1 -0.027759375 -0.00125 0.019490625 0.229056500414
237 1 -0.027759375 -0.00125 0.020671875 0.145001188869
238 1 -0.027759375 -0.00125 0.021853125 0.256575507258
239 1 -0.027759375 -0.00125 0.023034375 0.0744502354062
240 1 -0.027759375 -0.00125 0.024215625 4.21276405793e-05
241 1 -0.026578125 -0.00125 -0.026578125 7.78820161613e-05
242 1 -0.026578125 -0.00125 -0.025396875 3.85694420354e-10
243 1 -0.026578125 -0.00125 -0.024215625 3.75736237673e-10
244 1 -0.026578125 -0.00125 -0.023034375 1.81076060798e-05
245 1 -0.026578125 -0.00125 -0.021853125 0.000337274242476
246 1 -0.026578125 -0.00125 -0.020671875 0.00899440598595
247 1 -0.026578125 -0.00125 -0.019490625 0.069488922952
248 1 -0.026578125 -0.00125 -0.018309375 0.177524092324
249 1 -0.026578125 -0.00125 -0.017128125 0.242125114276
250 1 -0.026578125 -0.00125 -0.015946875 0.250228888741
251 1 -0.026578125 -0.00125 -0.014765625 0.351231020787
252 1 -0.026578125 -0.00125 -0.013584375 0.379258736149
253 1 -0.026578125 -0.00125 -0.012403125 0.445659584432
254 1 -0.026578125 -0.00125 -0.011221875 0.452960852858
255 1 -0.026578125 -0.00125 -0.010040625 0.412843731396
256 1 -0.026578125 -0.00125 -0.008859375 0.446330764034
257 1 -0.026578125 -0.00125 -0.007678125 0.489830870337
258 1 -0.026578125 -0.00125 -0.006496875 0.613215185466
259 1 -0.026578125 -0.00125 -0.005315625 0.772626529455
260 1 -0.026578125 -0.00125 -0.004134375 0.643438586588
261 1 -0.026578125 -0.00125 -0.002953125 0.471139433074
262 1 -0.026578125 -0.00125 -0.001771875 0.415524555266
263 1 -0.026578125 -0.00125 -0.000590625 0.448006378894
264 1 -0.026578125 -0.00125 0.000590625 0.446111406382
265 1 -0.026578125 -0.00125 0.001771875 0.471954544766
266 1 -0.026578125 -0.00125 0.002953125 0.483936130737
267 1 -0.026578125 -0.00125 0.004134375 0.497406257949
268 1 -0.026578125 -0.00125 0.005315625 0.501066970524
269 1 -0.026578125 -0.00125 0.006496875 0.629735620764
270 1 -0.026578125 -0.00125 0.007678125 0.594963364906
271 1 -0.026578125 -0.00125 0.008859375 0.598789369415
272 1 -0.026578125 -0.00125 0.010040625 0.63167534449
273 1 -0.026578125 -0.00125 0.011221875 0.592006359619
274 1 -0.026578125 -0.00125 0.012403125 0.564173046219
275 1 -0.026578125 -0.00125 0.013584375 0.516277478632
276 1 -0.026578125 -0.00125 0.014765625 0.434039042339
277 1 -0.026578125 -0.00125 0.015946875 0.380123975916
278 1 -0.026578125 -0.00125 0.017128125 0.334650384134
279 1 -0.026578125 -0.00125 0.018309375 0.333299206618
280 1 -0.026578125 -0.00125 0.019490625 0.269317543225
281 1 -0.026578125 -0.00125 0.020671875 0.148512586974
282 1 -0.026578125 -0.00125 0.021853125 0.0698786613396
283 1 -0.026578125 -0.00125 0.023034375 0.0669625753897
284 1 -0.026578125 -0.00125 0.024215625 0.00728713116687
285 1 -0.026578125 -0.00125 0.025396875 0.000248397981509
286 1 -0.026578125 -0.00125 0.026578125 0.0179937937191
287 1 -0.025396875 -0.00125 -0.026578125 7.44874129448e-10
288 1 -0.025396875 -0.00125 -0.025396875 9.04091755545e-11
289 1 -0.025396875 -0.00125 -0.024215625 9.20581069875e-09
290 1 -0.025396875 -0.00125 -0.023034375 9.72629371068e-07
291 1 -0.025396875 -0.00125 -0.021853125 0.000394233172822
292 1 -0.025396875 -0.00125 -0.020671875 0.0131455630034
293 1 -0.025396875 -0.00125 -0.019490625 0.0495323988332
294 1 -0.025396875 -0.00125 -0.018309375 0.245197571044
295 1 -0.025396875 -0.00125 -0.017128125 0.28475499489
296 1 -0.025396875 -0.00125 -0.015946875 0.385545211729
297 1 -0.025396875 -0.00125 -0.014765625 0.331625412624
298 1 -0.025396875 -0.00125 -0.013584375 0.467061586518
299 1 -0.025396875 -0.00125 -0.012403125 0.530459003119
300 1 -0.025396875 -0.00125 -0.011221875 0.416026913394
301 1 -0.025396875 -0.00125 -0.010040625 0.446508038463
302 1 -0.025396875 -0.00125 -0.008859375 0.536252868814
303 1 -0.025396875 -0.00125 -0.007678125 0.562176064886
304 1 -0.025396875 -0.00125 -0.006496875 0.793139869881
305 1 -0.025396875 -0.00125 -0.005315625 0.911150342222
306 1 -0.025396875 -0.00125 -0.004134375 0.839340294538
307 1 -0.025396875 -0.00125 -0.002953125 0.73967887935
308 1 -0.025396875 -0.00125 -0.001771875 0.65202322229
309 1 -0.025396875 -0.00125 -0.000590625 0.634087693781
310 1 -0.025396875 -0.00125 0.000590625 0.706171499257
311 1 -0.025396875 -0.00125 0.001771875 0.729329565074
312 1 -0.025396875 -0.00125 0.002953125 0.688327881303
313 1 -0.025396875 -0.00125 0.004134375 0.784173163071
314 1 -0.025396875 -0.00125 0.005315625 0.639395126538
315 1 -0.025396875 -0.00125 0.006496875 0.672543574251
316 1 -0.025396875 -0.00125 0.007678125 0.703312449288
317 1 -0.025396875 -0.00125 0.008859375 0.728830673499
318 1 -0.025396875 -0.00125 0.010040625 0.688598555074
319 1 -0.025396875 -0.00125 0.011221875 0.626492057985
320 1 -0.025396875 -0.00125 0.012403125 0.610617118263
321 1 -0.025396875 -0.00125 0.013584375 0.526614514962
322 1 -0.025396875 -0.00125 0.014765625 0.414042445161
323 1 -0.025396875 -0.00125 0.015946875 0.382706864293
324 1 -0.025396875 -0.00125 0.017128125 0.360817850935
325 1 -0.025396875 -0.00125 0.018309375 0.373580400722
326 1 -0.025396875 -0.00125 0.019490625 0.256768889728
327 1 -0.025396875 -0.00125 0.020671875 0.111342525392
328 1 -0.025396875 -0.00125 0.021853125 0.0360842342259
329 1 -0.025396875 -0.00125 0.023034375 0.0285586425923
330 1 -0.025396875 -0.00125 0.024215625 0.0246735141272
331 1 -0.025396875 -0.00125 0.025396875 0.000665356942894
332 1 -0.025396875 -0.00125 0.026578125 0.00107772788859
333 1 -0.024215625 -0.00125 -0.027759375 1.95221402817e-14
334 1 -0.024215625 -0.00125 -0.026578125 9.63769255566e-11
335 1 -0.024215625 -0.00125 -0.025396875 7.40126442612e-12
336 1 -0.024215625 -0.00125 -0.024215625 2.51620211477e-10
337 1 -0.024215625 -0.00125 -0.023034375 3.09538366566e-07
338 1 -0.024215625 -0.00125 -0.021853125 0.000168588724383
339 1 -0.024215625 -0.00125 -0.020671875 0.00426823057595
340 1 -0.024215625 -0.00125 -0.019490625 0.0259349822881
341 1 -0.024215625 -0.00125 -0.018309375 0.140340947866
342 1 -0.024215625 -0.00125 -0.017128125 0.24877342771
343 1 -0.024215625 -0.00125 -0.015946875 0.281060547783
344 1 -0.024215625 -0.00125 -0.014765625 0.310663797859
345 1 -0.024215625 -0.00125 -0.013584375 0.380126547737
346 1 -0.024215625 -0.00125 -0.012403125 0.462737891413
347 1 -0.024215625 -0.00125 -0.011221875 0.460115203006
348 1 -0.024215625 -0.00125 -0.010040625 0.44417202238
349 1 -0.024215625 -0.00125 -0.008859375 0.53540414974
350 1 -0.024215625 -0.00125 -0.007678125 0.728060037444
351 1 -0.024215625 -0.00125 -0.006496875 0.835944723743
352 1 -0.024215625 -0.00125 -0.005315625 0.938032371587
353 1 -0.024215625 -0.00125 -0.004134375 0.93330702693
354 1 -0.024215625 -0.00125 -0.002953125 0.932863110313
355 1 -0.024215625 -0.00125 -0.001771875 0.88754124567
356 1 -0.024215625 -0.00125 -0.000590625 0.848257935792
357 1 -0.024215625 -0.00125 0.000590625 0.864896817114
358 1 -0.024215625 -0.00125 0.001771875 0.886363865513
359 1 -0.024215625 -0.00125 0.002953125 0.907514714121
360 1 -0.024215625 -0.00125 0.004134375 0.921666423474
361 1 -0.024215625 -0.00125 0.005315625 0.898849939904
362 1 -0.024215625 -0.00125 0.006496875 0.822894138229
363 1 -0.024215625 -0.00125 0.007678125 0.823218363657
364 1 -0.024215625 -0.00125 0.008859375 0.813748382186
365 1 -0.024215625 -0.00125 0.010040625 0.765734622546
366 1 -0.024215625 -0.00125 0.011221875 0.679795200054
367 1 -0.024215625 -0.00125 0.012403125 0.570639873783
368 1 -0.024215625 -0.00125 0.013584375 0.41536543376
369 1 -0.024215625 -0.00125 0.014765625 0.459692624481
370 1 -0.024215625 -0.00125 0.015946875 0.429521517208
371 1 -0.024215625 -0.00125 0.017128125 0.403190367155
372 1 -0.024215625 -0.00125 0.018309375 0.351609180693
373 1 -0.024215625 -0.00125 0.019490625 0.247194464495
374 1 -0.024215625 -0.00125 0.020671875 0.0632244913346
375 1 -0.024215625 -0.00125 0.021853125 0.00756754421128
376 1 -0.024215625 -0.00125 0.023034375 0.00940350098068
377 1 -0.024215625 -0.00125 0.024215625 0.00926106268639
378 1 -0.024215625 -0.00125 0.025396875 0.0031819409063
379 1 -0.024215625 -0.00125 0.026578125 0.000503802331656
380 1 -0.024215625 -0.00125 0.027759375 2.71263830836e-08
381 1 -0.023034375 -0.00125 -0.027759375 6.28816518306e-06
382 1 -0.023034375 -0.00125 -0.026578125 6.64960267794e-07
383 1 -0.023034375 -0.00125 -0.025396875 5.82137010535e-11
384 1 -0.023034375 -0.00125 -0.024215625 2.5992133754e-16
385 1 -0.023034375 -0.00125 -0.023034375 1.98126106461e-13
386 1 -0.023034375 -0.00125 -0.021853125 2.2882984463e-07
387 1 -0.023034375 -0.00125 -0.020671875 0.000432483989709
388 1 -0.023034375 -0.00125 -0.019490625 0.0272721839467
389 1 -0.023034375 -0.00125 -0.018309375 0.0914127668148
390 1 -0.023034375 -0.00125 -0.017128125 0.186969087534
391 1 -0.023034375 -0.00125 -0.015946875 0.196763003503
392 1 -0.023034375 -0.00125 -0.014765625 0.290752430194
393 1 -0.023034375 -0.00125 -0.013584375 0.324015814719
394 1 -0.023034375 -0.00125 -0.012403125 0.373861309006
395 1 -0.023034375 -0.00125 -0.011221875 0.357532502295
396 1 -0.023034375 -0.00125 -0.010040625 0.390943616237
397 1 -0.023034375 -0.00125 -0.008859375 0.545607910215
398 1 -0.023034375 -0.00125 -0.007678125 0.643435690976
399 1 -0.023034375 -0.00125 -0.006496875 0.733487487989
400 1 -0.023034375 -0.00125 -0.005315625 0.965538911489
401 1 -0.023034375 -0.00125 -0.004134375 0.995277211799
402 1 -0.023034375 -0.00125 -0.002953125 0.986407777835
403 1 -0.023034375 -0.00125 -0.001771875 0.995765327647
404 1 -0.023034375 -0.00125 -0.000590625 0.984482113088
405 1 -0.023034375 -0.00125 0.000590625 0.996076496643
406 1 -0.023034375 -0.00125 0.001771875 0.993501215297
407 1 -0.023034375 -0.00125 0.002953125 0.994154818168
408 1 -0.023034375 -0.00125 0.004134375 0.977921195293
409 1 -0.023034375 -0.00125 0.005315625 0.99343574056
410 1 -0.023034375 -0.00125 0.006496875 0.958930647562
411 1 -0.023034375 -0.00125 0.007678125 0.931588809476
412 1 -0.023034375 -0.00125 0.008859375 0.853111513706
413 1 -0.023034375 -0.00125 0.010040625 0.77817348559
414 1 -0.023034375 -0.00125 0.011221875 0.628694126315
415 1 -0.023034375 -0.00125 0.012403125 0.518577418777
416 1 -0.023034375 -0.00125 0.013584375 0.315241214644
417 1 -0.023034375 -0.00125 0.014765625 0.283227355934
418 1 -0.023034375 -0.00125 0.015946875 0.322364545264
419 1 -0.023034375 -0.00125 0.017128125 0.247206607331
420 1 -0.023034375 -0.00125 0.018309375 0.294806932271
421 1 -0.023034375 -0.00125 0.019490625 0.115057438654
422 1 -0.023034375 -0.00125 0.020671875 0.0345871645873
423 1 -0.023034375 -0.00125 0.021853125 0.00328745759793
424 1 -0.023034375 -0.00125 0.023034375 0.000334914487053
425 1 -0.023034375 -0.00125 0.024215625 0.00425641130485
426 1 -0.023034375 -0.00125 0.025396875 0.00336178734873
427 1 -0.023034375 -0.00125 0.026578125 0.00563616690496
428 1 -0.023034375 -0.00125 0.027759375 0.0173516742962
429 1 -0.021853125 -0.00125 -0.028940625 1.05271206102e-08
430 1 -0.021853125 -0.00125 -0.027759375 0.00011132940786
431 1 -0.021853125 -0.00125 -0.026578125 9.92410539197e-09
432 1 -0.021853125 -0.00125 -0.025396875 1.09994781041e-19
433 1 -0.021853125 -0.00125 -0.024215625 4.36885175418e-12
434 1 -0.021853125 -0.00125 -0.023034375 3.5978453799e-08
435 1 -0.021853125 -0.00125 -0.021853125 5.98767759188e-08
436 1 -0.021853125 -0.00125 -0.020671875 0.000201876840821
437 1 -0.021853125 -0.00125 -0.019490625 0.0117023494804
438 1 -0.021853125 -0.00125 -0.018309375 0.0364159688972
439 1 -0.021853125 -0.00125 -0.017128125 0.117135415567
440 1 -0.021853125 -0.00125 -0.015946875 0.146799009139
441 1 -0.021853125 -0.00125 -0.014765625 0.144354352288
442 1 -0.021853125 -0.00125 -0.013584375 0.179491845966
443 1 -0.021853125 -0.00125 -0.012403125 0.178791769671
444 1 -0.021853125 -0.00125 -0.011221875 0.224537696425
445 1 -0.021853125 -0.00125 -0.010040625 0.339257974186
446 1 -0.021853125 -0.00125 -0.008859375 0.480707039223
447 1 -0.021853125 -0.00125 -0.007678125 0.570556463499
448 1 -0.021853125 -0.00125 -0.006496875 0.844485683007
449 1 -0.021853125 -0.00125 -0.005315625 0.978457702779
450 1 -0.021853125 -0.00125 -0.004134375 0.998444494091
451 1 -0.021853125 -0.00125 -0.002953125 0.999567296781
452 1 -0.021853125 -0.00125 -0.001771875 0.999843419352
453 1 -0.021853125 -0.00125 -0.000590625 0.999907895177
454 1 -0.021853125 -0.00125 0.000590625 0.999997289618
455 1 -0.021853125 -0.00125 0.001771875 0.999981189555
456 1 -0.021853125 -0.00125 0.002953125 0.99998327243
457 1 -0.021853125 -0.00125 0.004134375 0.999954681689
458 1 -0.021853125 -0.00125 0.005315625 0.999851535431
459 1 -0.021853125 -0.00125 0.006496875 0.99446341391
460 1 -0.021853125 -0.00125 0.007678125 0.973426120747
461 1 -0.021853125 -0.00125 0.008859375 0.925159741685
462 1 -0.021853125 -0.00125 0.010040625 0.821708597005
463 1 -0.021853125 -0.00125 0.011221875 0.683725611592
464 1 -0.021853125 -0.00125 0.012403125 0.470784869891
465 1 -0.021853125 -0.00125 0.013584375 0.213231390717
466 1 -0.021853125 -0.00125 0.014765625 0.180383504066
467 1 -0.021853125 -0.00125 0.015946875 0.154970296451
468 1 -0.021853125 -0.00125 0.017128125 0.154131752049
469 1 -0.021853125 -0.00125 0.018309375 0.18368494878
470 1 -0.021853125 -0.00125 0.019490625 0.0907764193586
471 1 -0.021853125 -0.00125 0.020671875 0.0121067370657
472 1 -0.021853125 -0.00125 0.021853125 0.000756007478023
473 1 -0.021853125 -0.00125 0.023034375 0.00045898445936
474 1 -0.021853125 -0.00125 0.024215625 0.00101842882165
475 1 -0.021853125 -0.00125 0.025396875 0.0068909252354
476 1 -0.021853125 -0.00125 0.026578125 0.0538897609018
477 1 -0.021853125 -0.00125 0.027759375 0.142987988917
478 1 -0.021853125 -0.00125 0.028940625 0.00355896541837
479 1 -0.020671875 -0.00125 -0.030121875 5.58378495998e-33
480 1 -0.020671875 -0.00125 -0.028940625 1.1351192708e-42
481 1 -0.020671875 -0.00125 -0.027759375 5.33140725726e-18
482 1 -0.020671875 -0.00125 -0.026578125 1.23187808211e-19
483 1 -0.020671875 -0.00125 -0.025396875 1.33340306547e-28
484 1 -0.020671875 -0.00125 -0.024215625 8.13209093165e-15
485 1 -0.020671875 -0.00125 -0.023034375 1.69730397214e-20
486 1 -0.020671875 -0.00125 -0.021853125 9.18206638174e-09
487 1 -0.020671875 -0.00125 -0.020671875 5.63881176098e-05
488 1 -0.020671875 -0.00125 -0.019490625 0.0271796347908
489 1 -0.020671875 -0.00125 -0.018309375 0.0255848123031
490 1 -0.020671875 -0.00125 -0.017128125 0.071875040948
491 1 -0.020671875 -0.00125 -0.015946875 0.112580754044
492 1 -0.020671875 -0.00125 -0.014765625 0.0987335644102
493 1 -0.020671875 -0.00125 -0.013584375 0.162384844344
494 1 -0.020671875 -0.00125 -0.012403125 0.109020008544
495 1 -0.020671875 -0.00125 -0.011221875 0.196076200749
496 1 -0.020671875 -0.00125 -0.010040625 0.288011890479
497 1 -0.020671875 -0.00125 -0.008859375 0.44982716557
498 1 -0.020671875 -0.00125 -0.007678125 0.601569029001
499 1 -0.020671875 -0.00125 -0.006496875 0.916797905309
500 1 -0.020671875 -0.00125 -0.005315625 0.984322167184
501 1 -0.020671875 -0.00125 -0.004134375 0.999890529695
502 1 -0.020671875 -0.00125 -0.002953125 0.999998645488
503 1 -0.020671875 -0.00125 -0.001771875 0.99999981788
504 1 -0.020671875 -0.00125 -0.000590625 0.999996782354
505 1 -0.020671875 -0.00125 0.000590625 0.999999990536
506 1 -0.020671875 -0.00125 0.001771875 0.99999999465
507 1 -0.020671875 -0.00125 0.002953125 0.999999999999
508 1 -0.020671875 -0.00125 0.004134375 0.999999377963
509 1 -0.020671875 -0.00125 0.005315625 0.999982668079
510 1 -0.020671875 -0.00125 0.006496875 0.99996276783
511 1 -0.020671875 -0.00125 0.007678125 0.997914698635
512 1 -0.020671875 -0.00125 0.008859375 0.970319069212
513 1 -0.020671875 -0.00125 0.010040625 0.823300680994
514 1 -0.020671875 -0.00125 0.011221875 0.690278939936
515 1 -0.020671875 -0.00125 0.012403125 0.446006268307
516 1 -0.020671875 -0.00125 0.013584375 0.172321494023
517 1 -0.020671875 -0.00125 0.014765625 0.132248884793
518 1 -0.020671875 -0.00125 0.015946875 0.142508302025
519 1 -0.020671875 -0.00125 0.017128125 0.103513770527
520 1 -0.020671875 -0.00125 0.018309375 0.167487946935
521 1 -0.020671875 -0.00125 0.019490625 0.0581400245454
522 1 -0.020671875 -0.00125 0.020671875 0.00787376056228
523 1 -0.020671875 -0.00125 0.021853125 9.07294382321e-05
524 1 -0.020671875 -0.00125 0.023034375 0.00119895962642
525 1 -0.020671875 -0.00125 0.024215625 7.29975697872e-05
526 1 -0.020671875 -0.00125 0.025396875 0.000238855711624
527 1 -0.020671875 -0.00125 0.026578125 0.00511389986175
528 1 -0.020671875 -0.00125 0.027759375 0.0263081509924
529 1 -0.020671875 -0.00125 0.028940625 2.97015280539e-06
530 1 -0.020671875 -0.00125 0.030121875 4.50273782746e-13
531 1 -0.019490625 -0.00125 -0.031303125 2.55680894459e-27
532 1 -0.019490625 -0.00125 -0.030121875 3.93420762452e-55