ITEM: TIMESTEP
0
ITEM: NUMBER OF ATOMS
3080
ITEM: BOX BOUNDS ss ss ss
-3.7007399999999996e-02 3.7007399999999996e-02
-2.0002499999999999e-03 2.5000000000000004e-07
-3.7007399999999996e-02 3.7007399999999996e-02
ITEM: ATOMS id type x y z c_1
0 1 -0.037209375 -0.00125 -0.000590625 0.999993002465
1 1 -0.036028125 -0.00125 -0.007678125 9.81688820838e-15
2 1 -0.036028125 -0.00125 -0.006496875 1.53906647922e-28
3 1 -0.036028125 -0.00125 -0.005315625 1.47042248753e-46
4 1 -0.036028125 -0.00125 -0.004134375 4.55838821955e-32
5 1 -0.036028125 -0.00125 -0.002953125 2.49942318082e-06
6 1 -0.036028125 -0.00125 -0.001771875 0.000273394848551
7 1 -0.036028125 -0.00125 -0.000590625 7.98313456057e-05
8 1 -0.036028125 -0.00125 0.000590625 9.71387002163e-23
9 1 -0.036028125 -0.00125 0.001771875 5.67893692655e-19
10 1 -0.036028125 -0.00125 0.002953125 2.11457613842e-53
11 1 -0.036028125 -0.00125 0.004134375 9.70610466723e-80
12 1 -0.036028125 -0.00125 0.005315625 1.51973964153e-84
13 1 -0.036028125 -0.00125 0.006496875 1.22038603474e-35
14 1 -0.036028125 -0.00125 0.007678125 2.51212051704e-30
15 1 -0.034846875 -0.00125 -0.011221875 0.000841803083879
16 1 -0.034846875 -0.00125 -0.010040625 3.46508385132e-06
17 1 -0.034846875 -0.00125 -0.008859375 8.68151575025e-05
18 1 -0.034846875 -0.00125 -0.007678125 1.27693512881e-33
19 1 -0.034846875 -0.00125 -0.006496875 1.15476224971e-27
20 1 -0.034846875 -0.00125 -0.005315625 1.2831834539e-60
21 1 -0.034846875 -0.00125 -0.004134375 1.39340230544e-64
22 1 -0.034846875 -0.00125 -0.002953125 1.29425091205e-10
23 1 -0.034846875 -0.00125 -0.001771875 8.83037448271e-09
24 1 -0.034846875 -0.00125 -0.000590625 1.00320777975e-08
25 1 -0.034846875 -0.00125 0.000590625 6.76233847061e-26
26 1 -0.034846875 -0.00125 0.001771875 2.48853570046e-61
27 1 -0.034846875 -0.00125 0.002953125 2.2356443202e-108
28 1 -0.034846875 -0.00125 0.004134375 2.77524957349e-135
29 1 -0.034846875 -0.00125 0.005315625 1.96428700598e-130
30 1 -0.034846875 -0.00125 0.006496875 1.11392314652e-87
31 1 -0.034846875 -0.00125 0.007678125 4.68364752704e-54
32 1 -0.034846875 -0.00125 0.008859375 1.71880804843e-10
33 1 -0.034846875 -0.00125 0.010040625 2.70329840978e-22
34 1 -0.034846875 -0.00125 0.011221875 1.12161552374e-20
35 1 -0.033665625 -0.00125 -0.013584375 1.79110809059e-05
36 1 -0.033665625 -0.00125 -0.012403125 0.0175259538771
37 1 -0.033665625 -0.00125 -0.011221875 0.00110415549422
38 1 -0.033665625 -0.00125 -0.010040625 9.31032422406e-06
39 1 -0.033665625 -0.00125 -0.008859375 3.85348095811e-07
40 1 -0.033665625 -0.00125 -0.007678125 4.04512838797e-17
41 1 -0.033665625 -0.00125 -0.006496875 9.31393334722e-36
42 1 -0.033665625 -0.00125 -0.005315625 1.41924791038e-66
43 1 -0.033665625 -0.00125 -0.004134375 1.01319940714e-26
44 1 -0.033665625 -0.00125 -0.002953125 2.19903463736e-19
45 1 -0.033665625 -0.00125 -0.001771875 2.70921251023e-12
46 1 -0.033665625 -0.00125 -0.000590625 1.55599508799e-08
47 1 -0.033665625 -0.00125 0.000590625 1.09332933575e-22
48 1 -0.033665625 -0.00125 0.001771875 2.51632034155e-53
49 1 -0.033665625 -0.00125 0.002953125 1.28911527488e-71
50 1 -0.033665625 -0.00125 0.004134375 2.2577880297e-154
51 1 -0.033665625 -0.00125 0.005315625 1.29719024572e-143
52 1 -0.033665625 -0.00125 0.006496875 1.38371290268e-56
53 1 -0.033665625 -0.00125 0.007678125 1.55946558997e-27
54 1 -0.033665625 -0.00125 0.008859375 8.82078123771e-12
55 1 -0.033665625 -0.00125 0.010040625 8.91229682055e-18
56 1 -0.033665625 -0.00125 0.011221875 3.56476233112e-24
57 1 -0.033665625 -0.00125 0.012403125 1.11600110147e-15
58 1 -0.033665625 -0.00125 0.013584375 9.25384132494e-55
59 1 -0.032484375 -0.00125 -0.018309375 0.000271064215111
60 1 -0.032484375 -0.00125 -0.017128125 1.31775748248e-05
61 1 -0.032484375 -0.00125 -0.015946875 0.00838815080395
62 1 -0.032484375 -0.00125 -0.014765625 0.000836274547028
63 1 -0.032484375 -0.00125 -0.013584375 7.6874293075e-07
64 1 -0.032484375 -0.00125 -0.012403125 0.00315172968206
65 1 -0.032484375 -0.00125 -0.011221875 0.00185096216247
66 1 -0.032484375 -0.00125 -0.010040625 3.04606387229e-06
67 1 -0.032484375 -0.00125 -0.008859375 6.65249182744e-06
68 1 -0.032484375 -0.00125 -0.007678125 8.2429309238e-07
69 1 -0.032484375 -0.00125 -0.006496875 9.96179961749e-16
70 1 -0.032484375 -0.00125 -0.005315625 2.56410498999e-14
71 1 -0.032484375 -0.00125 -0.004134375 1.62352986969e-16
72 1 -0.032484375 -0.00125 -0.002953125 9.17665357402e-18
73 1 -0.032484375 -0.00125 -0.001771875 6.70839703081e-11
74 1 -0.032484375 -0.00125 -0.000590625 3.0320231299e-09
75 1 -0.032484375 -0.00125 0.000590625 1.47621274602e-16
76 1 -0.032484375 -0.00125 0.001771875 4.70666908262e-10
77 1 -0.032484375 -0.00125 0.002953125 4.68579132774e-27
78 1 -0.032484375 -0.00125 0.004134375 2.56171269208e-30
79 1 -0.032484375 -0.00125 0.005315625 8.55093916972e-61
80 1 -0.032484375 -0.00125 0.006496875 3.5049265176e-28
81 1 -0.032484375 -0.00125 0.007678125 2.59085870754e-24
82 1 -0.032484375 -0.00125 0.008859375 1.27131786518e-12
83 1 -0.032484375 -0.00125 0.010040625 3.62021344176e-15
84 1 -0.032484375 -0.00125 0.011221875 1.14912774584e-15
85 1 -0.032484375 -0.00125 0.012403125 2.57266965329e-29
86 1 -0.032484375 -0.00125 0.013584375 7.38256326189e-124
87 1 -0.032484375 -0.00125 0.014765625 6.16312785361e-42
88 1 -0.032484375 -0.00125 0.015946875 2.77953587638e-23
89 1 -0.032484375 -0.00125 0.017128125 1.9577397948e-32
90 1 -0.032484375 -0.00125 0.018309375 9.75469971666e-38
91 1 -0.031303125 -0.00125 -0.019490625 1.31118553155e-05
92 1 -0.031303125 -0.00125 -0.018309375 0.00107930636707
93 1 -0.031303125 -0.00125 -0.017128125 0.00271641102022
94 1 -0.031303125 -0.00125 -0.015946875 0.000947304694055
95 1 -0.031303125 -0.00125 -0.014765625 0.000957916299985
96 1 -0.031303125 -0.00125 -0.013584375 2.10002961477e-05
97 1 -0.031303125 -0.00125 -0.012403125 0.000615324794817
98 1 -0.031303125 -0.00125 -0.011221875 0.000311938516091
99 1 -0.031303125 -0.00125 -0.010040625 2.65525256395e-05
100 1 -0.031303125 -0.00125 -0.008859375 4.73115246202e-07
101 1 -0.031303125 -0.00125 -0.007678125 1.86487597489e-06
102 1 -0.031303125 -0.00125 -0.006496875 6.50677625092e-08
103 1 -0.031303125 -0.00125 -0.005315625 1.39318985024e-07
104 1 -0.031303125 -0.00125 -0.004134375 1.46140928781e-12
105 1 -0.031303125 -0.00125 -0.002953125 7.7658986392e-08
106 1 -0.031303125 -0.00125 -0.001771875 6.4392572603e-06
107 1 -0.031303125 -0.00125 -0.000590625 2.00476632205e-06
108 1 -0.031303125 -0.00125 0.000590625 5.45136524431e-07
109 1 -0.031303125 -0.00125 0.001771875 4.65696323814e-07
110 1 -0.031303125 -0.00125 0.002953125 1.57849054368e-08
111 1 -0.031303125 -0.00125 0.004134375 3.57583487392e-09
112 1 -0.031303125 -0.00125 0.005315625 3.07831726853e-10
113 1 -0.031303125 -0.00125 0.006496875 7.62038313748e-14
114 1 -0.031303125 -0.00125 0.007678125 2.41413444795e-13
115 1 -0.031303125 -0.00125 0.008859375 2.67959559914e-18
116 1 -0.031303125 -0.00125 0.010040625 1.03386621133e-18
117 1 -0.031303125 -0.00125 0.011221875 9.3931320313e-15
118 1 -0.031303125 -0.00125 0.012403125 2.01928113436e-12
119 1 -0.031303125 -0.00125 0.013584375 3.34987545572e-31
120 1 -0.031303125 -0.00125 0.014765625 3.66483291812e-32
121 1 -0.031303125 -0.00125 0.015946875 1.12636676197e-33
122 1 -0.031303125 -0.00125 0.017128125 2.1889938206e-61
123 1 -0.031303125 -0.00125 0.018309375 1.23512807564e-39
124 1 -0.031303125 -0.00125 0.019490625 1.38667231138e-61
125 1 -0.030121875 -0.00125 -0.020671875 5.17356011488e-07
126 1 -0.030121875 -0.00125 -0.019490625 0.000302473831694
127 1 -0.030121875 -0.00125 -0.018309375 0.000551947540899
128 1 -0.030121875 -0.00125 -0.017128125 0.000716157078088
129 1 -0.030121875 -0.00125 -0.015946875 0.00023907345684
130 1 -0.030121875 -0.00125 -0.014765625 5.08955372942e-06
131 1 -0.030121875 -0.00125 -0.013584375 2.10668415767e-09
132 1 -0.030121875 -0.00125 -0.012403125 6.57638476988e-05
133 1 -0.030121875 -0.00125 -0.011221875 1.92137057235e-05
134 1 -0.030121875 -0.00125 -0.010040625 1.71108867489e-06
135 1 -0.030121875 -0.00125 -0.008859375 3.2995113277e-09
136 1 -0.030121875 -0.00125 -0.007678125 1.02817335525e-07
137 1 -0.030121875 -0.00125 -0.006496875 5.57985429591e-11
138 1 -0.030121875 -0.00125 -0.005315625 7.85453019557e-06
139 1 -0.030121875 -0.00125 -0.004134375 3.98830589587e-11
140 1 -0.030121875 -0.00125 -0.002953125 6.77545451662e-05
141 1 -0.030121875 -0.00125 -0.001771875 4.61063496895e-06
142 1 -0.030121875 -0.00125 -0.000590625 2.10241787888e-07
143 1 -0.030121875 -0.00125 0.000590625 5.2788813365e-06
144 1 -0.030121875 -0.00125 0.001771875 5.01921886556e-05
145 1 -0.030121875 -0.00125 0.002953125 2.36104309807e-06
146 1 -0.030121875 -0.00125 0.004134375 1.98785873064e-05
147 1 -0.030121875 -0.00125 0.005315625 4.47375851144e-06
148 1 -0.030121875 -0.00125 0.006496875 3.87658725509e-10
149 1 -0.030121875 -0.00125 0.007678125 7.54064413054e-14
150 1 -0.030121875 -0.00125 0.008859375 1.37492457493e-20
151 1 -0.030121875 -0.00125 0.010040625 3.64216889509e-10
152 1 -0.030121875 -0.00125 0.011221875 8.10929141195e-19
153 1 -0.030121875 -0.00125 0.012403125 2.09914053045e-11
154 1 -0.030121875 -0.00125 0.013584375 5.78670722723e-11
155 1 -0.030121875 -0.00125 0.014765625 5.33937852847e-18
156 1 -0.030121875 -0.00125 0.015946875 3.26751563756e-41
157 1 -0.030121875 -0.00125 0.017128125 3.84158486967e-36
158 1 -0.030121875 -0.00125 0.018309375 2.5376627932e-53
159 1 -0.030121875 -0.00125 0.019490625 1.63997751373e-129
160 1 -0.030121875 -0.00125 0.020671875 1.24027150167e-161
161 1 -0.028940625 -0.00125 -0.021853125 0.152660960398
162 1 -0.028940625 -0.00125 -0.020671875 0.0178488507462
163 1 -0.028940625 -0.00125 -0.019490625 0.00646328111057
164 1 -0.028940625 -0.00125 -0.018309375 4.9927570085e-05
165 1 -0.028940625 -0.00125 -0.017128125 2.08875862878e-06
166 1 -0.028940625 -0.00125 -0.015946875 2.83851652394e-05
167 1 -0.028940625 -0.00125 -0.014765625 7.51155011016e-06
168 1 -0.028940625 -0.00125 -0.013584375 1.55770912589e-08
169 1 -0.028940625 -0.00125 -0.012403125 1.18049603573e-08
170 1 -0.028940625 -0.00125 -0.011221875 1.50961461079e-07
171 1 -0.028940625 -0.00125 -0.010040625 3.75358945035e-07
172 1 -0.028940625 -0.00125 -0.008859375 3.31217317398e-08
173 1 -0.028940625 -0.00125 -0.007678125 1.09039320743e-07
174 1 -0.028940625 -0.00125 -0.006496875 2.43856020865e-05
175 1 -0.028940625 -0.00125 -0.005315625 0.000209707911642
176 1 -0.028940625 -0.00125 -0.004134375 0.000411896288045
177 1 -0.028940625 -0.00125 -0.002953125 0.000259695486492
178 1 -0.028940625 -0.00125 -0.001771875 0.000307433260487
179 1 -0.028940625 -0.00125 -0.000590625 0.000132922320886
180 1 -0.028940625 -0.00125 0.000590625 0.00071788703586
181 1 -0.028940625 -0.00125 0.001771875 0.000720243558621
182 1 -0.028940625 -0.00125 0.002953125 0.00070681622509
183 1 -0.028940625 -0.00125 0.004134375 3.77559404073e-07
184 1 -0.028940625 -0.00125 0.005315625 9.8394601593e-10
185 1 -0.028940625 -0.00125 0.006496875 1.19129158613e-07
186 1 -0.028940625 -0.00125 0.007678125 1.25175224304e-12
187 1 -0.028940625 -0.00125 0.008859375 2.10844952297e-16
188 1 -0.028940625 -0.00125 0.010040625 3.37080910739e-16
189 1 -0.028940625 -0.00125 0.011221875 2.62924102924e-14
190 1 -0.028940625 -0.00125 0.012403125 2.46700015887e-14
191 1 -0.028940625 -0.00125 0.013584375 2.46910555855e-11
192 1 -0.028940625 -0.00125 0.014765625 4.48284223888e-19
193 1 -0.028940625 -0.00125 0.015946875 4.04418878393e-22
194 1 -0.028940625 -0.00125 0.017128125 2.55985923103e-25
195 1 -0.028940625 -0.00125 0.018309375 2.2383777745e-36
196 1 -0.028940625 -0.00125 0.019490625 5.53424020495e-126
197 1 -0.028940625 -0.00125 0.020671875 2.54341427153e-147
198 1 -0.028940625 -0.00125 0.021853125 1.0408527478e-75
199 1 -0.027759375 -0.00125 -0.024215625 0.0024919488916
200 1 -0.027759375 -0.00125 -0.023034375 0.0665857430401
201 1 -0.027759375 -0.00125 -0.021853125 0.374432719803
202 1 -0.027759375 -0.00125 -0.020671875 0.127940404642
203 1 -0.027759375 -0.00125 -0.019490625 0.00767777950479
204 1 -0.027759375 -0.00125 -0.018309375 0.000716098946325
205 1 -0.027759375 -0.00125 -0.017128125 1.42868863292e-06
206 1 -0.027759375 -0.00125 -0.015946875 3.88476334957e-08
207 1 -0.027759375 -0.00125 -0.014765625 5.45913311353e-10
208 1 -0.027759375 -0.00125 -0.013584375 4.08493603399e-13
209 1 -0.027759375 -0.00125 -0.012403125 3.3049093913e-06
210 1 -0.027759375 -0.00125 -0.011221875 2.72723311171e-06
211 1 -0.027759375 -0.00125 -0.010040625 3.2481803235e-05
212 1 -0.027759375 -0.00125 -0.008859375 1.13444169635e-05
213 1 -0.027759375 -0.00125 -0.007678125 0.000304163925616
214 1 -0.027759375 -0.00125 -0.006496875 0.00315923284907
215 1 -0.027759375 -0.00125 -0.005315625 0.00837656162301
216 1 -0.027759375 -0.00125 -0.004134375 0.015034707015
217 1 -0.027759375 -0.00125 -0.002953125 0.0153530875352
218 1 -0.027759375 -0.00125 -0.001771875 0.00443834753369
219 1 -0.027759375 -0.00125 -0.000590625 0.00743113573319
220 1 -0.027759375 -0.00125 0.000590625 0.00244514074345
221 1 -0.027759375 -0.00125 0.001771875 0.00643651938403
222 1 -0.027759375 -0.00125 0.002953125 0.00353767987694
223 1 -0.027759375 -0.00125 0.004134375 0.000820280636271
224 1 -0.027759375 -0.00125 0.005315625 5.40964350615e-06
225 1 -0.027759375 -0.00125 0.006496875 5.08678509085e-07
226 1 -0.027759375 -0.00125 0.007678125 6.35726943253e-06
227 1 -0.027759375 -0.00125 0.008859375 3.58354201293e-05
228 1 -0.027759375 -0.00125 0.010040625 3.60514235442e-05
229 1 -0.027759375 -0.00125 0.011221875 3.11708881761e-07
230 1 -0.027759375 -0.00125 0.012403125 3.17390918012e-06
231 1 -0.027759375 -0.00125 0.013584375 6.18652126189e-06
232 1 -0.027759375 -0.00125 0.014765625 8.55366957006e-07
233 1 -0.027759375 -0.00125 0.015946875 1.28793730921e-09
234 1 -0.027759375 -0.00125 0.017128125 3.51707778873e-22
235 1 -0.027759375 -0.00125 0.018309375 5.71043041676e-27
236 1 -0.027759375 -0.00125 0.019490625 1.91488187745e-55
237 1 -0.027759375 -0.00125 0.020671875 1.1673164585e-109
238 1 -0.027759375 -0.00125 0.021853125 6.14630026354e-73
239 1 -0.027759375 -0.00125 0.023034375 1.69497320757e-144
240 1 -0.027759375 -0.00125 0.024215625 0.0
241 1 -0.026578125 -0.00125 -0.026578125 0.000626888832826
242 1 -0.026578125 -0.00125 -0.025396875 0.00142338605406
243 1 -0.026578125 -0.00125 -0.024215625 0.00251341714025
244 1 -0.026578125 -0.00125 -0.023034375 0.103359143035
245 1 -0.026578125 -0.00125 -0.021853125 0.318582060065
246 1 -0.026578125 -0.00125 -0.020671875 0.101909895759
247 1 -0.026578125 -0.00125 -0.019490625 0.0221969885752
248 1 -0.026578125 -0.00125 -0.018309375 0.00280413821655
249 1 -0.026578125 -0.00125 -0.017128125 1.71668742265e-05
250 1 -0.026578125 -0.00125 -0.015946875 2.22230171236e-08
251 1 -0.026578125 -0.00125 -0.014765625 1.13930209496e-09
252 1 -0.026578125 -0.00125 -0.013584375 1.45092226974e-08
253 1 -0.026578125 -0.00125 -0.012403125 2.68287737423e-06
254 1 -0.026578125 -0.00125 -0.011221875 8.19510667751e-05
255 1 -0.026578125 -0.00125 -0.010040625 0.000758855679428
256 1 -0.026578125 -0.00125 -0.008859375 0.00414469778059
257 1 -0.026578125 -0.00125 -0.007678125 0.0334679410092
258 1 -0.026578125 -0.00125 -0.006496875 0.0349891992358
259 1 -0.026578125 -0.00125 -0.005315625 0.0237163213435
260 1 -0.026578125 -0.00125 -0.004134375 0.0240186483919
261 1 -0.026578125 -0.00125 -0.002953125 0.0133320452087
262 1 -0.026578125 -0.00125 -0.001771875 0.0226776813847
263 1 -0.026578125 -0.00125 -0.000590625 0.00992435521549
264 1 -0.026578125 -0.00125 0.000590625 0.0203235753763
265 1 -0.026578125 -0.00125 0.001771875 0.0189700075189
266 1 -0.026578125 -0.00125 0.002953125 0.0139301135597
267 1 -0.026578125 -0.00125 0.004134375 0.00609054405334
268 1 -0.026578125 -0.00125 0.005315625 0.00608943410442
269 1 -0.026578125 -0.00125 0.006496875 0.000139406891341
270 1 -0.026578125 -0.00125 0.007678125 0.000646959127248
271 1 -0.026578125 -0.00125 0.008859375 0.000139616151946
272 1 -0.026578125 -0.00125 0.010040625 0.000513026386213
273 1 -0.026578125 -0.00125 0.011221875 0.00288269223575
274 1 -0.026578125 -0.00125 0.012403125 0.000349851270822
275 1 -0.026578125 -0.00125 0.013584375 0.000233348454079
276 1 -0.026578125 -0.00125 0.014765625 4.16559240332e-05
277 1 -0.026578125 -0.00125 0.015946875 9.18800664051e-09
278 1 -0.026578125 -0.00125 0.017128125 3.13627170781e-12
279 1 -0.026578125 -0.00125 0.018309375 2.23269950036e-14
280 1 -0.026578125 -0.00125 0.019490625 9.45931763985e-26
281 1 -0.026578125 -0.00125 0.020671875 4.25819829071e-86
282 1 -0.026578125 -0.00125 0.021853125 3.60961375609e-164
283 1 -0.026578125 -0.00125 0.023034375 0.0
284 1 -0.026578125 -0.00125 0.024215625 0.0
285 1 -0.026578125 -0.00125 0.025396875 3.10278218492e-252
286 1 -0.026578125 -0.00125 0.026578125 3.37811324897e-163
287 1 -0.025396875 -0.00125 -0.026578125 1.84209878104e-05
288 1 -0.025396875 -0.00125 -0.025396875 0.000151965570022
289 1 -0.025396875 -0.00125 -0.024215625 0.00520287712619
290 1 -0.025396875 -0.00125 -0.023034375 0.0828724922074
291 1 -0.025396875 -0.00125 -0.021853125 0.137254100446
292 1 -0.025396875 -0.00125 -0.020671875 0.0561519085065
293 1 -0.025396875 -0.00125 -0.019490625 0.00583366409477
294 1 -0.025396875 -0.00125 -0.018309375 0.00359179353922
295 1 -0.025396875 -0.00125 -0.017128125 2.75116830416e-05
296 1 -0.025396875 -0.00125 -0.015946875 1.73562555624e-05
297 1 -0.025396875 -0.00125 -0.014765625 4.60455892983e-06
298 1 -0.025396875 -0.00125 -0.013584375 1.92833549749e-07
299 1 -0.025396875 -0.00125 -0.012403125 0.000848888795305
300 1 -0.025396875 -0.00125 -0.011221875 0.00431410726912
301 1 -0.025396875 -0.00125 -0.010040625 0.0451742186378
302 1 -0.025396875 -0.00125 -0.008859375 0.0395729056783
303 1 -0.025396875 -0.00125 -0.007678125 0.076690848661
304 1 -0.025396875 -0.00125 -0.006496875 0.0378752729784
305 1 -0.025396875 -0.00125 -0.005315625 0.0293131991409
306 1 -0.025396875 -0.00125 -0.004134375 0.0215996488571
307 1 -0.025396875 -0.00125 -0.002953125 0.0182758691188
308 1 -0.025396875 -0.00125 -0.001771875 0.0146411227545
309 1 -0.025396875 -0.00125 -0.000590625 0.00505549868008
310 1 -0.025396875 -0.00125 0.000590625 0.0244694614007
311 1 -0.025396875 -0.00125 0.001771875 0.0274525383952
312 1 -0.025396875 -0.00125 0.002953125 0.00865224341633
313 1 -0.025396875 -0.00125 0.004134375 0.0143407616279
314 1 -0.025396875 -0.00125 0.005315625 0.0217300729209
315 1 -0.025396875 -0.00125 0.006496875 0.0208014332686
316 1 -0.025396875 -0.00125 0.007678125 0.0114102156019
317 1 -0.025396875 -0.00125 0.008859375 0.0145286271053
318 1 -0.025396875 -0.00125 0.010040625 0.0231566855903
319 1 -0.025396875 -0.00125 0.011221875 0.00824810816233
320 1 -0.025396875 -0.00125 0.012403125 0.0103766692994
321 1 -0.025396875 -0.00125 0.013584375 0.00783972928063
322 1 -0.025396875 -0.00125 0.014765625 1.29426348982e-05
323 1 -0.025396875 -0.00125 0.015946875 2.02173503876e-08
324 1 -0.025396875 -0.00125 0.017128125 1.74890140925e-09
325 1 -0.025396875 -0.00125 0.018309375 1.45011118843e-11
326 1 -0.025396875 -0.00125 0.019490625 1.16103377375e-21
327 1 -0.025396875 -0.00125 0.020671875 3.00582604973e-31
328 1 -0.025396875 -0.00125 0.021853125 5.56666559133e-264
329 1 -0.025396875 -0.00125 0.023034375 1.8370669897e-305
330 1 -0.025396875 -0.00125 0.024215625 0.0
331 1 -0.025396875 -0.00125 0.025396875 6.22755869185e-207
332 1 -0.025396875 -0.00125 0.026578125 0.0
333 1 -0.024215625 -0.00125 -0.027759375 6.49327284177e-06
334 1 -0.024215625 -0.00125 -0.026578125 0.000117310407067
335 1 -0.024215625 -0.00125 -0.025396875 0.001261564034
336 1 -0.024215625 -0.00125 -0.024215625 0.0251673512412
337 1 -0.024215625 -0.00125 -0.023034375 0.0169231343617
338 1 -0.024215625 -0.00125 -0.021853125 0.0289997992471
339 1 -0.024215625 -0.00125 -0.020671875 0.030215058378
340 1 -0.024215625 -0.00125 -0.019490625 0.00561281207321
341 1 -0.024215625 -0.00125 -0.018309375 0.000411399171316
342 1 -0.024215625 -0.00125 -0.017128125 0.000331101737762
343 1 -0.024215625 -0.00125 -0.015946875 0.000376496737641
344 1 -0.024215625 -0.00125 -0.014765625 0.000382219099566
345 1 -0.024215625 -0.00125 -0.013584375 0.00181828316408
346 1 -0.024215625 -0.00125 -0.012403125 0.0190840177494
347 1 -0.024215625 -0.00125 -0.011221875 0.0446437342946
348 1 -0.024215625 -0.00125 -0.010040625 0.0731895762343
349 1 -0.024215625 -0.00125 -0.008859375 0.0439478767315
350 1 -0.024215625 -0.00125 -0.007678125 0.0421617872723
351 1 -0.024215625 -0.00125 -0.006496875 0.0407414983986
352 1 -0.024215625 -0.00125 -0.005315625 0.0201388364938
353 1 -0.024215625 -0.00125 -0.004134375 0.0198880283462
354 1 -0.024215625 -0.00125 -0.002953125 0.0158443945904
355 1 -0.024215625 -0.00125 -0.001771875 0.0170546679598
356 1 -0.024215625 -0.00125 -0.000590625 0.00746214758565
357 1 -0.024215625 -0.00125 0.000590625 0.0134722449158
358 1 -0.024215625 -0.00125 0.001771875 0.0221498069262
359 1 -0.024215625 -0.00125 0.002953125 0.0213995547824
360 1 -0.024215625 -0.00125 0.004134375 0.0232005842103
361 1 -0.024215625 -0.00125 0.005315625 0.0223062593263
362 1 -0.024215625 -0.00125 0.006496875 0.0152417902824
363 1 -0.024215625 -0.00125 0.007678125 0.0279660721645
364 1 -0.024215625 -0.00125 0.008859375 0.0309156599275
365 1 -0.024215625 -0.00125 0.010040625 0.0394116983332
366 1 -0.024215625 -0.00125 0.011221875 0.0150848155132
367 1 -0.024215625 -0.00125 0.012403125 0.030742182497
368 1 -0.024215625 -0.00125 0.013584375 0.00867154954434
369 1 -0.024215625 -0.00125 0.014765625 0.000271974314165
370 1 -0.024215625 -0.00125 0.015946875 6.93929861433e-06
371 1 -0.024215625 -0.00125 0.017128125 5.93523469821e-08
372 1 -0.024215625 -0.00125 0.018309375 5.60333492701e-11
373 1 -0.024215625 -0.00125 0.019490625 1.1414834891e-26
374 1 -0.024215625 -0.00125 0.020671875 7.22373111351e-35
375 1 -0.024215625 -0.00125 0.021853125 1.19013526276e-55
376 1 -0.024215625 -0.00125 0.023034375 1.06657111608e-209
377 1 -0.024215625 -0.00125 0.024215625 0.0
378 1 -0.024215625 -0.00125 0.025396875 1.44532376898e-273
379 1 -0.024215625 -0.00125 0.026578125 7.78765553037e-214
380 1 -0.024215625 -0.00125 0.027759375 1.53551385566e-134
381 1 -0.023034375 -0.00125 -0.027759375 0.000361543616249
382 1 -0.023034375 -0.00125 -0.026578125 0.0216791906933
383 1 -0.023034375 -0.00125 -0.025396875 0.0327712128707
384 1 -0.023034375 -0.00125 -0.024215625 0.0311203556757
385 1 -0.023034375 -0.00125 -0.023034375 0.0421220644711
386 1 -0.023034375 -0.00125 -0.021853125 0.0162946890887
387 1 -0.023034375 -0.00125 -0.020671875 0.0126310711666
388 1 -0.023034375 -0.00125 -0.019490625 0.00539639468332
389 1 -0.023034375 -0.00125 -0.018309375 0.00518917148949
390 1 -0.023034375 -0.00125 -0.017128125 0.0159666122982
391 1 -0.023034375 -0.00125 -0.015946875 0.0066070282167
392 1 -0.023034375 -0.00125 -0.014765625 0.00513013192861
393 1 -0.023034375 -0.00125 -0.013584375 0.0177698815544
394 1 -0.023034375 -0.00125 -0.012403125 0.0370314306582
395 1 -0.023034375 -0.00125 -0.011221875 0.0614403402201
396 1 -0.023034375 -0.00125 -0.010040625 0.0357983059057
397 1 -0.023034375 -0.00125 -0.008859375 0.0576728931194
398 1 -0.023034375 -0.00125 -0.007678125 0.0551897954601
399 1 -0.023034375 -0.00125 -0.006496875 0.0645258788252
400 1 -0.023034375 -0.00125 -0.005315625 0.0434939850992
401 1 -0.023034375 -0.00125 -0.004134375 0.0425116449183
402 1 -0.023034375 -0.00125 -0.002953125 0.0174350984515
403 1 -0.023034375 -0.00125 -0.001771875 0.0180636911743
404 1 -0.023034375 -0.00125 -0.000590625 0.0132502373253
405 1 -0.023034375 -0.00125 0.000590625 0.0259783772899
406 1 -0.023034375 -0.00125 0.001771875 0.0472723075573
407 1 -0.023034375 -0.00125 0.002953125 0.0354042815655
408 1 -0.023034375 -0.00125 0.004134375 0.0231608798731
409 1 -0.023034375 -0.00125 0.005315625 0.0225031785622
410 1 -0.023034375 -0.00125 0.006496875 0.0476820948374
411 1 -0.023034375 -0.00125 0.007678125 0.0370104253378
412 1 -0.023034375 -0.00125 0.008859375 0.0708882436651
413 1 -0.023034375 -0.00125 0.010040625 0.0862296592219
414 1 -0.023034375 -0.00125 0.011221875 0.0494830392271
415 1 -0.023034375 -0.00125 0.012403125 0.0226256917267
416 1 -0.023034375 -0.00125 0.013584375 0.00777085772495
417 1 -0.023034375 -0.00125 0.014765625 0.000715526323114
418 1 -0.023034375 -0.00125 0.015946875 0.000256696202555
419 1 -0.023034375 -0.00125 0.017128125 8.03355661953e-09
420 1 -0.023034375 -0.00125 0.018309375 2.12975657958e-08
421 1 -0.023034375 -0.00125 0.019490625 1.10814620934e-09
422 1 -0.023034375 -0.00125 0.020671875 3.46068313508e-13
423 1 -0.023034375 -0.00125 0.021853125 1.02183070389e-59
424 1 -0.023034375 -0.00125 0.023034375 6.09568730922e-179
425 1 -0.023034375 -0.00125 0.024215625 2.73526023493e-148
426 1 -0.023034375 -0.00125 0.025396875 3.92512996591e-217
427 1 -0.023034375 -0.00125 0.026578125 1.36855727793e-161
428 1 -0.023034375 -0.00125 0.027759375 6.7379895649e-38
429 1 -0.021853125 -0.00125 -0.028940625 0.00218779130313
430 1 -0.021853125 -0.00125 -0.027759375 0.0264352986157
431 1 -0.021853125 -0.00125 -0.026578125 0.0178934269295
432 1 -0.021853125 -0.00125 -0.025396875 0.0386102758438
433 1 -0.021853125 -0.00125 -0.024215625 0.0441935411644
434 1 -0.021853125 -0.00125 -0.023034375 0.0331843208493
435 1 -0.021853125 -0.00125 -0.021853125 0.0214093093903
436 1 -0.021853125 -0.00125 -0.020671875 0.0189191311065
437 1 -0.021853125 -0.00125 -0.019490625 0.0320744635191
438 1 -0.021853125 -0.00125 -0.018309375 0.0262079284058
439 1 -0.021853125 -0.00125 -0.017128125 0.0341168924845
440 1 -0.021853125 -0.00125 -0.015946875 0.0289932889525
441 1 -0.021853125 -0.00125 -0.014765625 0.0528748415815
442 1 -0.021853125 -0.00125 -0.013584375 0.0419891713223
443 1 -0.021853125 -0.00125 -0.012403125 0.0325178211056
444 1 -0.021853125 -0.00125 -0.011221875 0.0452397173443
445 1 -0.021853125 -0.00125 -0.010040625 0.0275369431327
446 1 -0.021853125 -0.00125 -0.008859375 0.0413023213562
447 1 -0.021853125 -0.00125 -0.007678125 0.0784822476768
448 1 -0.021853125 -0.00125 -0.006496875 0.0426704079651
449 1 -0.021853125 -0.00125 -0.005315625 0.0310989537114
450 1 -0.021853125 -0.00125 -0.004134375 0.0283392024293
451 1 -0.021853125 -0.00125 -0.002953125 0.0101833708967
452 1 -0.021853125 -0.00125 -0.001771875 0.0142380295854
453 1 -0.021853125 -0.00125 -0.000590625 0.0235420494998
454 1 -0.021853125 -0.00125 0.000590625 0.0405974962339
455 1 -0.021853125 -0.00125 0.001771875 0.057991953284
456 1 -0.021853125 -0.00125 0.002953125 0.0560488672805
457 1 -0.021853125 -0.00125 0.004134375 0.0833242437596
458 1 -0.021853125 -0.00125 0.005315625 0.097092723758
459 1 -0.021853125 -0.00125 0.006496875 0.0774672453992
460 1 -0.021853125 -0.00125 0.007678125 0.0656903294263
461 1 -0.021853125 -0.00125 0.008859375 0.112253505001
462 1 -0.021853125 -0.00125 0.010040625 0.0842929428931
463 1 -0.021853125 -0.00125 0.011221875 0.0511685012117
464 1 -0.021853125 -0.00125 0.012403125 0.0229108069281
465 1 -0.021853125 -0.00125 0.013584375 0.0157250741306
466 1 -0.021853125 -0.00125 0.014765625 0.00502980266646
467 1 -0.021853125 -0.00125 0.015946875 0.00116699380275
468 1 -0.021853125 -0.00125 0.017128125 2.54207220504e-05
469 1 -0.021853125 -0.00125 0.018309375 1.87981375314e-07
470 1 -0.021853125 -0.00125 0.019490625 9.07877368188e-07
471 1 -0.021853125 -0.00125 0.020671875 1.25638139596e-12
472 1 -0.021853125 -0.00125 0.021853125 2.17094297252e-19
473 1 -0.021853125 -0.00125 0.023034375 1.34728156971e-33
474 1 -0.021853125 -0.00125 0.024215625 2.81431136583e-49
475 1 -0.021853125 -0.00125 0.025396875 1.06873329087e-50
476 1 -0.021853125 -0.00125 0.026578125 6.57217093676e-37
477 1 -0.021853125 -0.00125 0.027759375 9.62074427491e-24
478 1 -0.021853125 -0.00125 0.028940625 8.62809169627e-19
479 1 -0.020671875 -0.00125 -0.030121875 0.00228725280185
480 1 -0.020671875 -0.00125 -0.028940625 0.00503176252403
481 1 -0.020671875 -0.00125 -0.027759375 0.0335397612369
482 1 -0.020671875 -0.00125 -0.026578125 0.0249862068151
483 1 -0.020671875 -0.00125 -0.025396875 0.0334694248692
484 1 -0.020671875 -0.00125 -0.024215625 0.0382451614803
485 1 -0.020671875 -0.00125 -0.023034375 0.044730170235
486 1 -0.020671875 -0.00125 -0.021853125 0.0684186147815
487 1 -0.020671875 -0.00125 -0.020671875 0.0349689379435
488 1 -0.020671875 -0.00125 -0.019490625 0.0789688955743
489 1 -0.020671875 -0.00125 -0.018309375 0.128686026474
490 1 -0.020671875 -0.00125 -0.017128125 0.0873481620814
491 1 -0.020671875 -0.00125 -0.015946875 0.0898607863205
492 1 -0.020671875 -0.00125 -0.014765625 0.0811884915487
493 1 -0.020671875 -0.00125 -0.013584375 0.0765757715773
494 1 -0.020671875 -0.00125 -0.012403125 0.0841450549849
495 1 -0.020671875 -0.00125 -0.011221875 0.00642920923977
496 1 -0.020671875 -0.00125 -0.010040625 0.0157410718868
497 1 -0.020671875 -0.00125 -0.008859375 0.0131967004697
498 1 -0.020671875 -0.00125 -0.007678125 0.011720473564
499 1 -0.020671875 -0.00125 -0.006496875 0.026712962119
500 1 -0.020671875 -0.00125 -0.005315625 0.0251700647341
501 1 -0.020671875 -0.00125 -0.004134375 0.0300503775795
502 1 -0.020671875 -0.00125 -0.002953125 0.017138792393
503 1 -0.020671875 -0.00125 -0.001771875 0.0639960594657
504 1 -0.020671875 -0.00125 -0.000590625 0.0574602484388
505 1 -0.020671875 -0.00125 0.000590625 0.0947803039164
506 1 -0.020671875 -0.00125 0.001771875 0.124368133319
507 1 -0.020671875 -0.00125 0.002953125 0.147074849975
508 1 -0.020671875 -0.00125 0.004134375 0.134047856755
509 1 -0.020671875 -0.00125 0.005315625 0.0990249808345
510 1 -0.020671875 -0.00125 0.006496875 0.0536264813883
511 1 -0.020671875 -0.00125 0.007678125 0.0870524848888
512 1 -0.020671875 -0.00125 0.008859375 0.14071582025
513 1 -0.020671875 -0.00125 0.010040625 0.118892427398
514 1 -0.020671875 -0.00125 0.011221875 0.0903787848649
515 1 -0.020671875 -0.00125 0.012403125 0.0660385261079
516 1 -0.020671875 -0.00125 0.013584375 0.0135338790484
517 1 -0.020671875 -0.00125 0.014765625 0.0146836495272
518 1 -0.020671875 -0.00125 0.015946875 0.00489992501603