ITEM: TIMESTEP
0
ITEM: NUMBER OF ATOMS
3080
ITEM: BOX BOUNDS ss ss ss
-3.7007399999999996e-02 3.7007399999999996e-02
-2.0002499999999999e-03 2.5000000000000004e-07
-3.7007399999999996e-02 3.7007399999999996e-02
ITEM: ATOMS id type x y z c_1
0 1 -0.037209375 -0.00125 -0.000590625 0.972214274914
1 1 -0.036028125 -0.00125 -0.007678125 2.78023128307e-36
2 1 -0.036028125 -0.00125 -0.006496875 2.19959608805e-86
3 1 -0.036028125 -0.00125 -0.005315625 3.02443442749e-183
4 1 -0.036028125 -0.00125 -0.004134375 2.4978449645e-82
5 1 -0.036028125 -0.00125 -0.002953125 3.85010837066e-12
6 1 -0.036028125 -0.00125 -0.001771875 6.86581808998e-05
7 1 -0.036028125 -0.00125 -0.000590625 0.000282759576226
8 1 -0.036028125 -0.00125 0.000590625 3.81205764005e-10
9 1 -0.036028125 -0.00125 0.001771875 1.98393192933e-06
10 1 -0.036028125 -0.00125 0.002953125 4.89647469541e-33
11 1 -0.036028125 -0.00125 0.004134375 1.19419781884e-96
12 1 -0.036028125 -0.00125 0.005315625 1.16704485003e-146
13 1 -0.036028125 -0.00125 0.006496875 2.43906929951e-77
14 1 -0.036028125 -0.00125 0.007678125 2.34327814832e-44
15 1 -0.034846875 -0.00125 -0.011221875 1.09137870373e-05
16 1 -0.034846875 -0.00125 -0.010040625 5.41346591509e-15
17 1 -0.034846875 -0.00125 -0.008859375 1.67008693385e-08
18 1 -0.034846875 -0.00125 -0.007678125 5.51060235029e-43
19 1 -0.034846875 -0.00125 -0.006496875 2.27352416124e-79
20 1 -0.034846875 -0.00125 -0.005315625 1.84079429048e-187
21 1 -0.034846875 -0.00125 -0.004134375 6.62366622651e-90
22 1 -0.034846875 -0.00125 -0.002953125 9.37232922829e-16
23 1 -0.034846875 -0.00125 -0.001771875 2.52733656473e-07
24 1 -0.034846875 -0.00125 -0.000590625 7.33208728705e-07
25 1 -0.034846875 -0.00125 0.000590625 6.05257988843e-15
26 1 -0.034846875 -0.00125 0.001771875 1.29516889133e-22
27 1 -0.034846875 -0.00125 0.002953125 3.11749030741e-41
28 1 -0.034846875 -0.00125 0.004134375 3.09519828002e-155
29 1 -0.034846875 -0.00125 0.005315625 9.1369047119e-252
30 1 -0.034846875 -0.00125 0.006496875 9.0714371417e-208
31 1 -0.034846875 -0.00125 0.007678125 5.31563967008e-65
32 1 -0.034846875 -0.00125 0.008859375 2.88756390597e-10
33 1 -0.034846875 -0.00125 0.010040625 1.76262037482e-31
34 1 -0.034846875 -0.00125 0.011221875 1.95590797563e-19
35 1 -0.033665625 -0.00125 -0.013584375 7.82886313534e-17
36 1 -0.033665625 -0.00125 -0.012403125 0.00329058746028
37 1 -0.033665625 -0.00125 -0.011221875 2.54906612108e-05
38 1 -0.033665625 -0.00125 -0.010040625 9.46382242177e-11
39 1 -0.033665625 -0.00125 -0.008859375 3.795232482e-12
40 1 -0.033665625 -0.00125 -0.007678125 9.44697791077e-31
41 1 -0.033665625 -0.00125 -0.006496875 5.4931801975e-80
42 1 -0.033665625 -0.00125 -0.005315625 1.1161586594e-180
43 1 -0.033665625 -0.00125 -0.004134375 5.43328867261e-47
44 1 -0.033665625 -0.00125 -0.002953125 9.34589010647e-28
45 1 -0.033665625 -0.00125 -0.001771875 6.81650331077e-11
46 1 -0.033665625 -0.00125 -0.000590625 2.0482873347e-07
47 1 -0.033665625 -0.00125 0.000590625 2.18415053174e-15
48 1 -0.033665625 -0.00125 0.001771875 7.06937633231e-24
49 1 -0.033665625 -0.00125 0.002953125 3.22411380591e-42
50 1 -0.033665625 -0.00125 0.004134375 3.48855712261e-159
51 1 -0.033665625 -0.00125 0.005315625 1.77048146525e-191
52 1 -0.033665625 -0.00125 0.006496875 8.06490255293e-138
53 1 -0.033665625 -0.00125 0.007678125 3.97398654096e-42
54 1 -0.033665625 -0.00125 0.008859375 8.95298647909e-16
55 1 -0.033665625 -0.00125 0.010040625 1.12894470999e-25
56 1 -0.033665625 -0.00125 0.011221875 2.97756399285e-19
57 1 -0.033665625 -0.00125 0.012403125 1.52488205775e-07
58 1 -0.033665625 -0.00125 0.013584375 1.20636505633e-27
59 1 -0.032484375 -0.00125 -0.018309375 3.55749278219e-18
60 1 -0.032484375 -0.00125 -0.017128125 2.75750199973e-18
61 1 -0.032484375 -0.00125 -0.015946875 1.45578974154e-08
62 1 -0.032484375 -0.00125 -0.014765625 1.5525932425e-16
63 1 -0.032484375 -0.00125 -0.013584375 3.88570400235e-21
64 1 -0.032484375 -0.00125 -0.012403125 3.26226582782e-07
65 1 -0.032484375 -0.00125 -0.011221875 3.03319389385e-07
66 1 -0.032484375 -0.00125 -0.010040625 1.9172513609e-14
67 1 -0.032484375 -0.00125 -0.008859375 5.48845522807e-15
68 1 -0.032484375 -0.00125 -0.007678125 8.037574242e-18
69 1 -0.032484375 -0.00125 -0.006496875 4.42625131953e-43
70 1 -0.032484375 -0.00125 -0.005315625 8.56890936363e-61
71 1 -0.032484375 -0.00125 -0.004134375 7.96691920059e-51
72 1 -0.032484375 -0.00125 -0.002953125 1.29388776686e-29
73 1 -0.032484375 -0.00125 -0.001771875 4.43562027795e-15
74 1 -0.032484375 -0.00125 -0.000590625 7.28703178331e-13
75 1 -0.032484375 -0.00125 0.000590625 2.13304262072e-17
76 1 -0.032484375 -0.00125 0.001771875 7.38915450973e-14
77 1 -0.032484375 -0.00125 0.002953125 7.83338227361e-36
78 1 -0.032484375 -0.00125 0.004134375 2.94155928599e-82
79 1 -0.032484375 -0.00125 0.005315625 4.17960689818e-110
80 1 -0.032484375 -0.00125 0.006496875 1.609105756e-122
81 1 -0.032484375 -0.00125 0.007678125 1.50280813622e-45
82 1 -0.032484375 -0.00125 0.008859375 4.42504425286e-19
83 1 -0.032484375 -0.00125 0.010040625 1.54833760486e-22
84 1 -0.032484375 -0.00125 0.011221875 9.29415428401e-13
85 1 -0.032484375 -0.00125 0.012403125 1.69698442963e-15
86 1 -0.032484375 -0.00125 0.013584375 2.43701565795e-77
87 1 -0.032484375 -0.00125 0.014765625 2.2305481283e-18
88 1 -0.032484375 -0.00125 0.015946875 5.90028936237e-11
89 1 -0.032484375 -0.00125 0.017128125 8.95746055812e-11
90 1 -0.032484375 -0.00125 0.018309375 2.33610821142e-15
91 1 -0.031303125 -0.00125 -0.019490625 2.58871649605e-36
92 1 -0.031303125 -0.00125 -0.018309375 1.3775612242e-21
93 1 -0.031303125 -0.00125 -0.017128125 5.54595705022e-13
94 1 -0.031303125 -0.00125 -0.015946875 2.54803306176e-14
95 1 -0.031303125 -0.00125 -0.014765625 1.85161143509e-14
96 1 -0.031303125 -0.00125 -0.013584375 3.29813983362e-17
97 1 -0.031303125 -0.00125 -0.012403125 1.69333469809e-12
98 1 -0.031303125 -0.00125 -0.011221875 4.01700194052e-12
99 1 -0.031303125 -0.00125 -0.010040625 1.80292364413e-14
100 1 -0.031303125 -0.00125 -0.008859375 1.47168377011e-21
101 1 -0.031303125 -0.00125 -0.007678125 1.06075143594e-21
102 1 -0.031303125 -0.00125 -0.006496875 1.07228619349e-23
103 1 -0.031303125 -0.00125 -0.005315625 6.96104143002e-28
104 1 -0.031303125 -0.00125 -0.004134375 4.44310186667e-34
105 1 -0.031303125 -0.00125 -0.002953125 5.98034181794e-26
106 1 -0.031303125 -0.00125 -0.001771875 1.23361476385e-16
107 1 -0.031303125 -0.00125 -0.000590625 7.38683766506e-12
108 1 -0.031303125 -0.00125 0.000590625 9.35185024104e-14
109 1 -0.031303125 -0.00125 0.001771875 2.56507594102e-21
110 1 -0.031303125 -0.00125 0.002953125 3.4018236719e-27
111 1 -0.031303125 -0.00125 0.004134375 1.1006002478e-26
112 1 -0.031303125 -0.00125 0.005315625 1.58566449817e-37
113 1 -0.031303125 -0.00125 0.006496875 5.94536033074e-61
114 1 -0.031303125 -0.00125 0.007678125 1.1735258622e-36
115 1 -0.031303125 -0.00125 0.008859375 2.2981273734e-30
116 1 -0.031303125 -0.00125 0.010040625 1.36590977725e-31
117 1 -0.031303125 -0.00125 0.011221875 2.05678298993e-22
118 1 -0.031303125 -0.00125 0.012403125 1.0012131583e-15
119 1 -0.031303125 -0.00125 0.013584375 2.10998480466e-33
120 1 -0.031303125 -0.00125 0.014765625 1.16048473169e-23
121 1 -0.031303125 -0.00125 0.015946875 3.05803892905e-15
122 1 -0.031303125 -0.00125 0.017128125 1.66137776512e-20
123 1 -0.031303125 -0.00125 0.018309375 5.7151566406e-19
124 1 -0.031303125 -0.00125 0.019490625 3.89943662192e-28
125 1 -0.030121875 -0.00125 -0.020671875 2.1091255237e-71
126 1 -0.030121875 -0.00125 -0.019490625 1.8715307867e-30
127 1 -0.030121875 -0.00125 -0.018309375 4.25886058916e-21
128 1 -0.030121875 -0.00125 -0.017128125 1.26948437599e-13
129 1 -0.030121875 -0.00125 -0.015946875 1.9477452218e-23
130 1 -0.030121875 -0.00125 -0.014765625 3.9242440159e-20
131 1 -0.030121875 -0.00125 -0.013584375 1.1352754092e-23
132 1 -0.030121875 -0.00125 -0.012403125 5.4772568422e-15
133 1 -0.030121875 -0.00125 -0.011221875 4.2189528975e-19
134 1 -0.030121875 -0.00125 -0.010040625 2.17563731235e-27
135 1 -0.030121875 -0.00125 -0.008859375 8.9771034663e-38
136 1 -0.030121875 -0.00125 -0.007678125 1.63252054003e-29
137 1 -0.030121875 -0.00125 -0.006496875 3.41287021595e-34
138 1 -0.030121875 -0.00125 -0.005315625 7.82957357054e-18
139 1 -0.030121875 -0.00125 -0.004134375 7.41899420418e-46
140 1 -0.030121875 -0.00125 -0.002953125 1.79563761615e-22
141 1 -0.030121875 -0.00125 -0.001771875 8.68770637756e-28
142 1 -0.030121875 -0.00125 -0.000590625 1.74442625265e-20
143 1 -0.030121875 -0.00125 0.000590625 4.36087353648e-20
144 1 -0.030121875 -0.00125 0.001771875 4.42084480404e-22
145 1 -0.030121875 -0.00125 0.002953125 1.19724276419e-20
146 1 -0.030121875 -0.00125 0.004134375 3.86446358665e-18
147 1 -0.030121875 -0.00125 0.005315625 6.75376530515e-22
148 1 -0.030121875 -0.00125 0.006496875 3.16799201434e-55
149 1 -0.030121875 -0.00125 0.007678125 4.7473197853e-43
150 1 -0.030121875 -0.00125 0.008859375 4.43353058469e-40
151 1 -0.030121875 -0.00125 0.010040625 8.80697812809e-26
152 1 -0.030121875 -0.00125 0.011221875 1.00265396183e-27
153 1 -0.030121875 -0.00125 0.012403125 1.32789858009e-18
154 1 -0.030121875 -0.00125 0.013584375 1.37635694961e-17
155 1 -0.030121875 -0.00125 0.014765625 1.19388712776e-20
156 1 -0.030121875 -0.00125 0.015946875 9.25355840187e-18
157 1 -0.030121875 -0.00125 0.017128125 3.05938161029e-16
158 1 -0.030121875 -0.00125 0.018309375 4.04285122137e-21
159 1 -0.030121875 -0.00125 0.019490625 1.25795986532e-28
160 1 -0.030121875 -0.00125 0.020671875 1.13836347536e-30
161 1 -0.028940625 -0.00125 -0.021853125 7.09351479698e-10
162 1 -0.028940625 -0.00125 -0.020671875 8.70020201927e-18
163 1 -0.028940625 -0.00125 -0.019490625 9.95741901971e-17
164 1 -0.028940625 -0.00125 -0.018309375 6.18102219857e-22
165 1 -0.028940625 -0.00125 -0.017128125 1.13932371388e-21
166 1 -0.028940625 -0.00125 -0.015946875 9.83171496864e-19
167 1 -0.028940625 -0.00125 -0.014765625 1.72702682542e-18
168 1 -0.028940625 -0.00125 -0.013584375 5.18277943631e-26
169 1 -0.028940625 -0.00125 -0.012403125 2.61843766336e-30
170 1 -0.028940625 -0.00125 -0.011221875 1.00249855622e-28
171 1 -0.028940625 -0.00125 -0.010040625 5.48622505954e-28
172 1 -0.028940625 -0.00125 -0.008859375 3.6912253831e-30
173 1 -0.028940625 -0.00125 -0.007678125 2.1049578027e-25
174 1 -0.028940625 -0.00125 -0.006496875 1.85122981761e-17
175 1 -0.028940625 -0.00125 -0.005315625 1.27090031681e-16
176 1 -0.028940625 -0.00125 -0.004134375 6.4026734494e-18
177 1 -0.028940625 -0.00125 -0.002953125 1.83841780008e-18
178 1 -0.028940625 -0.00125 -0.001771875 3.93300207643e-18
179 1 -0.028940625 -0.00125 -0.000590625 3.90176413892e-13
180 1 -0.028940625 -0.00125 0.000590625 1.36507326991e-16
181 1 -0.028940625 -0.00125 0.001771875 1.19457090373e-17
182 1 -0.028940625 -0.00125 0.002953125 3.75443195604e-13
183 1 -0.028940625 -0.00125 0.004134375 2.07376782207e-14
184 1 -0.028940625 -0.00125 0.005315625 1.06848285742e-21
185 1 -0.028940625 -0.00125 0.006496875 7.94063668428e-25
186 1 -0.028940625 -0.00125 0.007678125 1.69358067571e-36
187 1 -0.028940625 -0.00125 0.008859375 4.32931404418e-43
188 1 -0.028940625 -0.00125 0.010040625 2.43773594008e-38
189 1 -0.028940625 -0.00125 0.011221875 7.94179569415e-24
190 1 -0.028940625 -0.00125 0.012403125 8.69000423978e-27
191 1 -0.028940625 -0.00125 0.013584375 4.01875421747e-29
192 1 -0.028940625 -0.00125 0.014765625 4.56569812586e-24
193 1 -0.028940625 -0.00125 0.015946875 8.40211446879e-13
194 1 -0.028940625 -0.00125 0.017128125 1.41883924283e-13
195 1 -0.028940625 -0.00125 0.018309375 2.46690173316e-17
196 1 -0.028940625 -0.00125 0.019490625 1.15249383554e-27
197 1 -0.028940625 -0.00125 0.020671875 1.32298925971e-26
198 1 -0.028940625 -0.00125 0.021853125 8.52240411848e-19
199 1 -0.027759375 -0.00125 -0.024215625 1.38031250253e-29
200 1 -0.027759375 -0.00125 -0.023034375 2.31709284727e-18
201 1 -0.027759375 -0.00125 -0.021853125 3.12402299758e-05
202 1 -0.027759375 -0.00125 -0.020671875 3.70500477211e-10
203 1 -0.027759375 -0.00125 -0.019490625 5.59104614829e-11
204 1 -0.027759375 -0.00125 -0.018309375 3.68860611501e-12
205 1 -0.027759375 -0.00125 -0.017128125 1.9209405581e-14
206 1 -0.027759375 -0.00125 -0.015946875 1.73819849424e-21
207 1 -0.027759375 -0.00125 -0.014765625 5.00872342804e-28
208 1 -0.027759375 -0.00125 -0.013584375 9.55036236974e-29
209 1 -0.027759375 -0.00125 -0.012403125 2.36205551846e-18
210 1 -0.027759375 -0.00125 -0.011221875 5.16496616636e-18
211 1 -0.027759375 -0.00125 -0.010040625 1.1043217845e-17
212 1 -0.027759375 -0.00125 -0.008859375 1.13712424314e-21
213 1 -0.027759375 -0.00125 -0.007678125 4.44184616238e-16
214 1 -0.027759375 -0.00125 -0.006496875 4.69091647044e-09
215 1 -0.027759375 -0.00125 -0.005315625 4.9350906465e-08
216 1 -0.027759375 -0.00125 -0.004134375 2.30673458182e-08
217 1 -0.027759375 -0.00125 -0.002953125 6.93866554348e-07
218 1 -0.027759375 -0.00125 -0.001771875 1.6138135327e-08
219 1 -0.027759375 -0.00125 -0.000590625 2.80247488958e-05
220 1 -0.027759375 -0.00125 0.000590625 3.91938764965e-08
221 1 -0.027759375 -0.00125 0.001771875 2.36177415433e-08
222 1 -0.027759375 -0.00125 0.002953125 3.75278718868e-08
223 1 -0.027759375 -0.00125 0.004134375 3.25123328743e-09
224 1 -0.027759375 -0.00125 0.005315625 2.08339796184e-14
225 1 -0.027759375 -0.00125 0.006496875 1.70032965129e-21
226 1 -0.027759375 -0.00125 0.007678125 3.40219378562e-27
227 1 -0.027759375 -0.00125 0.008859375 5.45184659405e-14
228 1 -0.027759375 -0.00125 0.010040625 1.0741361631e-13
229 1 -0.027759375 -0.00125 0.011221875 1.30759019016e-23
230 1 -0.027759375 -0.00125 0.012403125 5.6802645656e-15
231 1 -0.027759375 -0.00125 0.013584375 5.47930263991e-13
232 1 -0.027759375 -0.00125 0.014765625 2.90757894804e-13
233 1 -0.027759375 -0.00125 0.015946875 2.41847977405e-10
234 1 -0.027759375 -0.00125 0.017128125 1.62996037806e-10
235 1 -0.027759375 -0.00125 0.018309375 6.62666515453e-11
236 1 -0.027759375 -0.00125 0.019490625 7.16108365173e-18
237 1 -0.027759375 -0.00125 0.020671875 4.1120826985e-28
238 1 -0.027759375 -0.00125 0.021853125 1.40839223157e-15
239 1 -0.027759375 -0.00125 0.023034375 4.33513404644e-37
240 1 -0.027759375 -0.00125 0.024215625 1.23968445276e-154
241 1 -0.026578125 -0.00125 -0.026578125 2.11475594938e-56
242 1 -0.026578125 -0.00125 -0.025396875 2.55915680408e-59
243 1 -0.026578125 -0.00125 -0.024215625 4.10147786582e-42
244 1 -0.026578125 -0.00125 -0.023034375 9.42989372418e-20
245 1 -0.026578125 -0.00125 -0.021853125 9.74849581164e-10
246 1 -0.026578125 -0.00125 -0.020671875 2.16476873881e-07
247 1 -0.026578125 -0.00125 -0.019490625 1.7876945408e-05
248 1 -0.026578125 -0.00125 -0.018309375 3.17128610244e-07
249 1 -0.026578125 -0.00125 -0.017128125 1.3734241719e-11
250 1 -0.026578125 -0.00125 -0.015946875 2.13431023429e-18
251 1 -0.026578125 -0.00125 -0.014765625 2.67340537969e-32
252 1 -0.026578125 -0.00125 -0.013584375 1.00703703902e-21
253 1 -0.026578125 -0.00125 -0.012403125 1.37717839319e-16
254 1 -0.026578125 -0.00125 -0.011221875 1.88313458742e-11
255 1 -0.026578125 -0.00125 -0.010040625 7.13263935643e-14
256 1 -0.026578125 -0.00125 -0.008859375 2.1412460799e-10
257 1 -0.026578125 -0.00125 -0.007678125 6.38602508194e-06
258 1 -0.026578125 -0.00125 -0.006496875 0.000162526756152
259 1 -0.026578125 -0.00125 -0.005315625 0.00278225315466
260 1 -0.026578125 -0.00125 -0.004134375 0.00383348729875
261 1 -0.026578125 -0.00125 -0.002953125 0.00157145784976
262 1 -0.026578125 -0.00125 -0.001771875 0.000432117931744
263 1 -0.026578125 -0.00125 -0.000590625 0.000692994885542
264 1 -0.026578125 -0.00125 0.000590625 0.000321371181784
265 1 -0.026578125 -0.00125 0.001771875 0.000371796590499
266 1 -0.026578125 -0.00125 0.002953125 0.000823581541305
267 1 -0.026578125 -0.00125 0.004134375 4.12087706523e-05
268 1 -0.026578125 -0.00125 0.005315625 1.92158996903e-06
269 1 -0.026578125 -0.00125 0.006496875 4.15338110139e-19
270 1 -0.026578125 -0.00125 0.007678125 1.99902847758e-13
271 1 -0.026578125 -0.00125 0.008859375 5.65313438012e-13
272 1 -0.026578125 -0.00125 0.010040625 6.47891511862e-13
273 1 -0.026578125 -0.00125 0.011221875 8.12624681491e-13
274 1 -0.026578125 -0.00125 0.012403125 6.76264589642e-11
275 1 -0.026578125 -0.00125 0.013584375 3.61779448888e-07
276 1 -0.026578125 -0.00125 0.014765625 8.06229119573e-08
277 1 -0.026578125 -0.00125 0.015946875 5.20409390361e-08
278 1 -0.026578125 -0.00125 0.017128125 1.76693638987e-06
279 1 -0.026578125 -0.00125 0.018309375 2.97381248272e-06
280 1 -0.026578125 -0.00125 0.019490625 4.60742605818e-11
281 1 -0.026578125 -0.00125 0.020671875 1.00236053231e-19
282 1 -0.026578125 -0.00125 0.021853125 8.9613677495e-37
283 1 -0.026578125 -0.00125 0.023034375 5.40636852745e-107
284 1 -0.026578125 -0.00125 0.024215625 5.76461990482e-80
285 1 -0.026578125 -0.00125 0.025396875 2.59505141192e-71
286 1 -0.026578125 -0.00125 0.026578125 2.95269704921e-59
287 1 -0.025396875 -0.00125 -0.026578125 1.84723351241e-95
288 1 -0.025396875 -0.00125 -0.025396875 4.94484941052e-62
289 1 -0.025396875 -0.00125 -0.024215625 1.36517604313e-37
290 1 -0.025396875 -0.00125 -0.023034375 2.90544533137e-21
291 1 -0.025396875 -0.00125 -0.021853125 2.94032573955e-08
292 1 -0.025396875 -0.00125 -0.020671875 4.72036527132e-06
293 1 -0.025396875 -0.00125 -0.019490625 5.33834805762e-05
294 1 -0.025396875 -0.00125 -0.018309375 5.83586386076e-05
295 1 -0.025396875 -0.00125 -0.017128125 2.04586305674e-10
296 1 -0.025396875 -0.00125 -0.015946875 9.34478111648e-13
297 1 -0.025396875 -0.00125 -0.014765625 7.93128830488e-11
298 1 -0.025396875 -0.00125 -0.013584375 1.08888825224e-11
299 1 -0.025396875 -0.00125 -0.012403125 2.7679735057e-09
300 1 -0.025396875 -0.00125 -0.011221875 4.21670172868e-07
301 1 -0.025396875 -0.00125 -0.010040625 7.20467305361e-05
302 1 -0.025396875 -0.00125 -0.008859375 4.91034160953e-05
303 1 -0.025396875 -0.00125 -0.007678125 0.000382091182187
304 1 -0.025396875 -0.00125 -0.006496875 0.0048295693067
305 1 -0.025396875 -0.00125 -0.005315625 0.013687823619
306 1 -0.025396875 -0.00125 -0.004134375 0.0244313785387
307 1 -0.025396875 -0.00125 -0.002953125 0.0121854464188
308 1 -0.025396875 -0.00125 -0.001771875 0.00383918268015
309 1 -0.025396875 -0.00125 -0.000590625 0.000548614879125
310 1 -0.025396875 -0.00125 0.000590625 0.00158510158387
311 1 -0.025396875 -0.00125 0.001771875 0.00155182958029
312 1 -0.025396875 -0.00125 0.002953125 0.00211351562688
313 1 -0.025396875 -0.00125 0.004134375 0.0046394644808
314 1 -0.025396875 -0.00125 0.005315625 0.00304056366169
315 1 -0.025396875 -0.00125 0.006496875 2.72479739335e-06
316 1 -0.025396875 -0.00125 0.007678125 6.00366577249e-07
317 1 -0.025396875 -0.00125 0.008859375 1.75192266601e-07
318 1 -0.025396875 -0.00125 0.010040625 4.56619377653e-10
319 1 -0.025396875 -0.00125 0.011221875 1.18697088992e-12
320 1 -0.025396875 -0.00125 0.012403125 4.81744635226e-09
321 1 -0.025396875 -0.00125 0.013584375 8.49616670843e-09
322 1 -0.025396875 -0.00125 0.014765625 2.76679641315e-05
323 1 -0.025396875 -0.00125 0.015946875 0.000161672978628
324 1 -0.025396875 -0.00125 0.017128125 0.000196840841568
325 1 -0.025396875 -0.00125 0.018309375 1.8076461125e-05
326 1 -0.025396875 -0.00125 0.019490625 9.60993761833e-07
327 1 -0.025396875 -0.00125 0.020671875 3.81112725529e-12
328 1 -0.025396875 -0.00125 0.021853125 7.08051670456e-37
329 1 -0.025396875 -0.00125 0.023034375 7.79514806053e-71
330 1 -0.025396875 -0.00125 0.024215625 7.27681678731e-69
331 1 -0.025396875 -0.00125 0.025396875 1.60179595143e-61
332 1 -0.025396875 -0.00125 0.026578125 3.02574780596e-196
333 1 -0.024215625 -0.00125 -0.027759375 2.34015113127e-32
334 1 -0.024215625 -0.00125 -0.026578125 8.44393938301e-40
335 1 -0.024215625 -0.00125 -0.025396875 1.15240372879e-33
336 1 -0.024215625 -0.00125 -0.024215625 1.91097945591e-16
337 1 -0.024215625 -0.00125 -0.023034375 3.22854491112e-10
338 1 -0.024215625 -0.00125 -0.021853125 1.59487071982e-05
339 1 -0.024215625 -0.00125 -0.020671875 4.85557439825e-05
340 1 -0.024215625 -0.00125 -0.019490625 4.62916584552e-05
341 1 -0.024215625 -0.00125 -0.018309375 1.1434807671e-06
342 1 -0.024215625 -0.00125 -0.017128125 3.7617125517e-09
343 1 -0.024215625 -0.00125 -0.015946875 5.77423050921e-08
344 1 -0.024215625 -0.00125 -0.014765625 1.76840474308e-07
345 1 -0.024215625 -0.00125 -0.013584375 9.34607260972e-07
346 1 -0.024215625 -0.00125 -0.012403125 1.66933376345e-05
347 1 -0.024215625 -0.00125 -0.011221875 8.77017617794e-05
348 1 -0.024215625 -0.00125 -0.010040625 0.000405528720975
349 1 -0.024215625 -0.00125 -0.008859375 0.000478830900878
350 1 -0.024215625 -0.00125 -0.007678125 0.000480046440979
351 1 -0.024215625 -0.00125 -0.006496875 0.0168279424933
352 1 -0.024215625 -0.00125 -0.005315625 0.0438246334435
353 1 -0.024215625 -0.00125 -0.004134375 0.0398321025586
354 1 -0.024215625 -0.00125 -0.002953125 0.0286509934859
355 1 -0.024215625 -0.00125 -0.001771875 0.0187582438228
356 1 -0.024215625 -0.00125 -0.000590625 0.00333525843423
357 1 -0.024215625 -0.00125 0.000590625 0.0101444476089
358 1 -0.024215625 -0.00125 0.001771875 0.00751788690423
359 1 -0.024215625 -0.00125 0.002953125 0.00603429660034
360 1 -0.024215625 -0.00125 0.004134375 0.00251120700111
361 1 -0.024215625 -0.00125 0.005315625 0.000645930812524
362 1 -0.024215625 -0.00125 0.006496875 6.31420320498e-06
363 1 -0.024215625 -0.00125 0.007678125 7.57861836875e-07
364 1 -0.024215625 -0.00125 0.008859375 3.1519448848e-07
365 1 -0.024215625 -0.00125 0.010040625 3.76120455635e-07
366 1 -0.024215625 -0.00125 0.011221875 2.22983705688e-09
367 1 -0.024215625 -0.00125 0.012403125 2.62534035394e-07
368 1 -0.024215625 -0.00125 0.013584375 5.84410396734e-07
369 1 -0.024215625 -0.00125 0.014765625 0.000265012108976
370 1 -0.024215625 -0.00125 0.015946875 0.000748227839824
371 1 -0.024215625 -0.00125 0.017128125 0.000956452135054
372 1 -0.024215625 -0.00125 0.018309375 0.000153200700918
373 1 -0.024215625 -0.00125 0.019490625 6.56081732876e-07
374 1 -0.024215625 -0.00125 0.020671875 7.17650187705e-12
375 1 -0.024215625 -0.00125 0.021853125 8.61057259129e-18
376 1 -0.024215625 -0.00125 0.023034375 3.26136280963e-40
377 1 -0.024215625 -0.00125 0.024215625 1.35569496519e-69
378 1 -0.024215625 -0.00125 0.025396875 1.03529206238e-90
379 1 -0.024215625 -0.00125 0.026578125 2.31606816882e-89
380 1 -0.024215625 -0.00125 0.027759375 4.79843591891e-67
381 1 -0.023034375 -0.00125 -0.027759375 4.10871855228e-37
382 1 -0.023034375 -0.00125 -0.026578125 3.7527346367e-19
383 1 -0.023034375 -0.00125 -0.025396875 1.20018655064e-14
384 1 -0.023034375 -0.00125 -0.024215625 1.25534160496e-10
385 1 -0.023034375 -0.00125 -0.023034375 1.50879647142e-05
386 1 -0.023034375 -0.00125 -0.021853125 0.000144299711304
387 1 -0.023034375 -0.00125 -0.020671875 0.00089635816315
388 1 -0.023034375 -0.00125 -0.019490625 0.000501203107809
389 1 -0.023034375 -0.00125 -0.018309375 0.000259282451742
390 1 -0.023034375 -0.00125 -0.017128125 5.56679932663e-05
391 1 -0.023034375 -0.00125 -0.015946875 0.000112874684085
392 1 -0.023034375 -0.00125 -0.014765625 2.53259315628e-05
393 1 -0.023034375 -0.00125 -0.013584375 3.42061349053e-06
394 1 -0.023034375 -0.00125 -0.012403125 1.21596105647e-06
395 1 -0.023034375 -0.00125 -0.011221875 6.73621430972e-05
396 1 -0.023034375 -0.00125 -0.010040625 0.000828770565937
397 1 -0.023034375 -0.00125 -0.008859375 0.000280865979985
398 1 -0.023034375 -0.00125 -0.007678125 0.00154033950519
399 1 -0.023034375 -0.00125 -0.006496875 0.0170059461756
400 1 -0.023034375 -0.00125 -0.005315625 0.0205855442773
401 1 -0.023034375 -0.00125 -0.004134375 0.0330553385535
402 1 -0.023034375 -0.00125 -0.002953125 0.0236617211286
403 1 -0.023034375 -0.00125 -0.001771875 0.0453122442375
404 1 -0.023034375 -0.00125 -0.000590625 0.0256630520658
405 1 -0.023034375 -0.00125 0.000590625 0.0130686312811
406 1 -0.023034375 -0.00125 0.001771875 0.00210775373865
407 1 -0.023034375 -0.00125 0.002953125 0.00593969652699
408 1 -0.023034375 -0.00125 0.004134375 0.00185983587755
409 1 -0.023034375 -0.00125 0.005315625 6.05651292879e-06
410 1 -0.023034375 -0.00125 0.006496875 0.000165310967874
411 1 -0.023034375 -0.00125 0.007678125 4.26211768301e-05
412 1 -0.023034375 -0.00125 0.008859375 1.98724380628e-06
413 1 -0.023034375 -0.00125 0.010040625 4.06969562437e-08
414 1 -0.023034375 -0.00125 0.011221875 6.52840383751e-09
415 1 -0.023034375 -0.00125 0.012403125 1.97917811525e-07
416 1 -0.023034375 -0.00125 0.013584375 5.36658543574e-06
417 1 -0.023034375 -0.00125 0.014765625 0.00125923771836
418 1 -0.023034375 -0.00125 0.015946875 0.00200171113154
419 1 -0.023034375 -0.00125 0.017128125 0.00175610457498
420 1 -0.023034375 -0.00125 0.018309375 0.00160542174346
421 1 -0.023034375 -0.00125 0.019490625 0.00102801299531
422 1 -0.023034375 -0.00125 0.020671875 4.911036255e-05
423 1 -0.023034375 -0.00125 0.021853125 3.29826975783e-12
424 1 -0.023034375 -0.00125 0.023034375 4.75519622851e-19
425 1 -0.023034375 -0.00125 0.024215625 3.13344642197e-37
426 1 -0.023034375 -0.00125 0.025396875 4.53904205697e-38
427 1 -0.023034375 -0.00125 0.026578125 1.4780140223e-45
428 1 -0.023034375 -0.00125 0.027759375 2.33448693032e-20
429 1 -0.021853125 -0.00125 -0.028940625 1.93676802818e-16
430 1 -0.021853125 -0.00125 -0.027759375 2.30173459519e-15
431 1 -0.021853125 -0.00125 -0.026578125 7.61419140409e-17
432 1 -0.021853125 -0.00125 -0.025396875 1.24362806328e-08
433 1 -0.021853125 -0.00125 -0.024215625 1.02616343659e-05
434 1 -0.021853125 -0.00125 -0.023034375 0.000100673163534
435 1 -0.021853125 -0.00125 -0.021853125 0.0017558595674
436 1 -0.021853125 -0.00125 -0.020671875 0.00243196600788
437 1 -0.021853125 -0.00125 -0.019490625 0.00181959133987
438 1 -0.021853125 -0.00125 -0.018309375 0.000990192964487
439 1 -0.021853125 -0.00125 -0.017128125 0.001836864559
440 1 -0.021853125 -0.00125 -0.015946875 0.0017845282334
441 1 -0.021853125 -0.00125 -0.014765625 0.00126895049235
442 1 -0.021853125 -0.00125 -0.013584375 0.000130398627815
443 1 -0.021853125 -0.00125 -0.012403125 2.01517694759e-05
444 1 -0.021853125 -0.00125 -0.011221875 0.000148310765439
445 1 -0.021853125 -0.00125 -0.010040625 0.000568561060424
446 1 -0.021853125 -0.00125 -0.008859375 0.000465971263634
447 1 -0.021853125 -0.00125 -0.007678125 0.00391916174799
448 1 -0.021853125 -0.00125 -0.006496875 0.00507980431045
449 1 -0.021853125 -0.00125 -0.005315625 0.00520586351918
450 1 -0.021853125 -0.00125 -0.004134375 0.0104622748968
451 1 -0.021853125 -0.00125 -0.002953125 0.00307895069985
452 1 -0.021853125 -0.00125 -0.001771875 0.00391975892281
453 1 -0.021853125 -0.00125 -0.000590625 0.0244267652269
454 1 -0.021853125 -0.00125 0.000590625 0.00493990102339
455 1 -0.021853125 -0.00125 0.001771875 0.000271454650627
456 1 -0.021853125 -0.00125 0.002953125 0.000970163510688
457 1 -0.021853125 -0.00125 0.004134375 0.00280140113499
458 1 -0.021853125 -0.00125 0.005315625 0.00264529508887
459 1 -0.021853125 -0.00125 0.006496875 0.00101327398072
460 1 -0.021853125 -0.00125 0.007678125 7.00460916631e-05
461 1 -0.021853125 -0.00125 0.008859375 0.000105239226892
462 1 -0.021853125 -0.00125 0.010040625 3.39347117421e-06
463 1 -0.021853125 -0.00125 0.011221875 1.08632124043e-06
464 1 -0.021853125 -0.00125 0.012403125 3.01006827223e-06
465 1 -0.021853125 -0.00125 0.013584375 4.14872644485e-06
466 1 -0.021853125 -0.00125 0.014765625 0.00155740596631
467 1 -0.021853125 -0.00125 0.015946875 0.00820802521105
468 1 -0.021853125 -0.00125 0.017128125 0.00791381049821
469 1 -0.021853125 -0.00125 0.018309375 0.00555231551648
470 1 -0.021853125 -0.00125 0.019490625 0.00452796729804
471 1 -0.021853125 -0.00125 0.020671875 0.000243222332602
472 1 -0.021853125 -0.00125 0.021853125 1.59332515135e-06
473 1 -0.021853125 -0.00125 0.023034375 6.08326087589e-13
474 1 -0.021853125 -0.00125 0.024215625 1.34663242349e-19
475 1 -0.021853125 -0.00125 0.025396875 8.53898236934e-18
476 1 -0.021853125 -0.00125 0.026578125 2.53914150245e-21
477 1 -0.021853125 -0.00125 0.027759375 2.32939065518e-16
478 1 -0.021853125 -0.00125 0.028940625 3.91122835025e-20
479 1 -0.020671875 -0.00125 -0.030121875 1.38116338525e-18
480 1 -0.020671875 -0.00125 -0.028940625 4.16535542142e-15
481 1 -0.020671875 -0.00125 -0.027759375 6.83027970928e-16
482 1 -0.020671875 -0.00125 -0.026578125 1.66804233091e-11
483 1 -0.020671875 -0.00125 -0.025396875 9.5019344534e-10
484 1 -0.020671875 -0.00125 -0.024215625 6.63523251865e-06
485 1 -0.020671875 -0.00125 -0.023034375 0.000204972753067
486 1 -0.020671875 -0.00125 -0.021853125 0.00171312188923
487 1 -0.020671875 -0.00125 -0.020671875 0.0040247438206
488 1 -0.020671875 -0.00125 -0.019490625 0.0108277778625
489 1 -0.020671875 -0.00125 -0.018309375 0.0177628125291
490 1 -0.020671875 -0.00125 -0.017128125 0.00893013990132
491 1 -0.020671875 -0.00125 -0.015946875 0.00328080533054
492 1 -0.020671875 -0.00125 -0.014765625 0.00196480715803
493 1 -0.020671875 -0.00125 -0.013584375 0.000127074687467
494 1 -0.020671875 -0.00125 -0.012403125 0.000119757940007
495 1 -0.020671875 -0.00125 -0.011221875 3.87523890509e-05
496 1 -0.020671875 -0.00125 -0.010040625 0.00153016693805
497 1 -0.020671875 -0.00125 -0.008859375 0.000241314460929
498 1 -0.020671875 -0.00125 -0.007678125 0.00236863358784
499 1 -0.020671875 -0.00125 -0.006496875 0.00756604762008
500 1 -0.020671875 -0.00125 -0.005315625 0.0109752251129
501 1 -0.020671875 -0.00125 -0.004134375 0.0232378141721
502 1 -0.020671875 -0.00125 -0.002953125 0.00831853939869
503 1 -0.020671875 -0.00125 -0.001771875 0.0227996786929
504 1 -0.020671875 -0.00125 -0.000590625 0.0261995985558
505 1 -0.020671875 -0.00125 0.000590625 0.0147882496324
506 1 -0.020671875 -0.00125 0.001771875 0.0033300628891
507 1 -0.020671875 -0.00125 0.002953125 0.000365653828498
508 1 -0.020671875 -0.00125 0.004134375 0.000827965709904
509 1 -0.020671875 -0.00125 0.005315625 0.00125877883125
510 1 -0.020671875 -0.00125 0.006496875 0.000536854046199
511 1 -0.020671875 -0.00125 0.007678125 7.21403085964e-05
512 1 -0.020671875 -0.00125 0.008859375 0.000427460083113