ITEM: TIMESTEP
0
ITEM: NUMBER OF ATOMS
3080
ITEM: BOX BOUNDS ss ss ss
-3.7007399999999996e-02 3.7007399999999996e-02
-2.0002499999999999e-03 2.5000000000000004e-07
-3.7007399999999996e-02 3.7007399999999996e-02
ITEM: ATOMS id type x y z c_1
0 1 -0.037209375 -0.00125 -0.000590625 0.000389223571085
1 1 -0.036028125 -0.00125 -0.007678125 6.37465002252e-07
2 1 -0.036028125 -0.00125 -0.006496875 2.93467404121e-10
3 1 -0.036028125 -0.00125 -0.005315625 4.58309301658e-16
4 1 -0.036028125 -0.00125 -0.004134375 5.27270357018e-13
5 1 -0.036028125 -0.00125 -0.002953125 7.04067826215e-07
6 1 -0.036028125 -0.00125 -0.001771875 1.12935012269e-06
7 1 -0.036028125 -0.00125 -0.000590625 0.000131989349254
8 1 -0.036028125 -0.00125 0.000590625 0.0154922477587
9 1 -0.036028125 -0.00125 0.001771875 0.102709551985
10 1 -0.036028125 -0.00125 0.002953125 0.0139128399192
11 1 -0.036028125 -0.00125 0.004134375 0.00122592193591
12 1 -0.036028125 -0.00125 0.005315625 6.57593640298e-06
13 1 -0.036028125 -0.00125 0.006496875 1.4480794458e-06
14 1 -0.036028125 -0.00125 0.007678125 0.000361958870819
15 1 -0.034846875 -0.00125 -0.011221875 3.83184144539e-05
16 1 -0.034846875 -0.00125 -0.010040625 3.78934476367e-05
17 1 -0.034846875 -0.00125 -0.008859375 0.000348828165715
18 1 -0.034846875 -0.00125 -0.007678125 5.94988360228e-08
19 1 -0.034846875 -0.00125 -0.006496875 2.96529992855e-11
20 1 -0.034846875 -0.00125 -0.005315625 3.879640878e-12
21 1 -0.034846875 -0.00125 -0.004134375 8.38158409381e-08
22 1 -0.034846875 -0.00125 -0.002953125 2.77676975617e-07
23 1 -0.034846875 -0.00125 -0.001771875 4.12394800444e-07
24 1 -0.034846875 -0.00125 -0.000590625 0.00243386350973
25 1 -0.034846875 -0.00125 0.000590625 0.0255270742129
26 1 -0.034846875 -0.00125 0.001771875 0.0593115071601
27 1 -0.034846875 -0.00125 0.002953125 0.0264257521407
28 1 -0.034846875 -0.00125 0.004134375 0.00164414233507
29 1 -0.034846875 -0.00125 0.005315625 3.58879885034e-07
30 1 -0.034846875 -0.00125 0.006496875 1.56720389241e-08
31 1 -0.034846875 -0.00125 0.007678125 0.00311500803962
32 1 -0.034846875 -0.00125 0.008859375 0.107996882747
33 1 -0.034846875 -0.00125 0.010040625 0.00378851843793
34 1 -0.034846875 -0.00125 0.011221875 0.0112344592463
35 1 -0.033665625 -0.00125 -0.013584375 3.06836403624e-07
36 1 -0.033665625 -0.00125 -0.012403125 0.00247156201419
37 1 -0.033665625 -0.00125 -0.011221875 0.000619208124342
38 1 -0.033665625 -0.00125 -0.010040625 0.00124441620981
39 1 -0.033665625 -0.00125 -0.008859375 0.000578835797377
40 1 -0.033665625 -0.00125 -0.007678125 8.18180315061e-07
41 1 -0.033665625 -0.00125 -0.006496875 4.40946691065e-07
42 1 -0.033665625 -0.00125 -0.005315625 2.84754964847e-07
43 1 -0.033665625 -0.00125 -0.004134375 8.18644944264e-06
44 1 -0.033665625 -0.00125 -0.002953125 6.31323964552e-06
45 1 -0.033665625 -0.00125 -0.001771875 0.000311058025608
46 1 -0.033665625 -0.00125 -0.000590625 0.0128904657029
47 1 -0.033665625 -0.00125 0.000590625 0.0689004556581
48 1 -0.033665625 -0.00125 0.001771875 0.0838371626117
49 1 -0.033665625 -0.00125 0.002953125 0.0528012927714
50 1 -0.033665625 -0.00125 0.004134375 0.0181124512915
51 1 -0.033665625 -0.00125 0.005315625 0.00170926248101
52 1 -0.033665625 -0.00125 0.006496875 4.91946661108e-05
53 1 -0.033665625 -0.00125 0.007678125 0.0203152888386
54 1 -0.033665625 -0.00125 0.008859375 0.0783121033752
55 1 -0.033665625 -0.00125 0.010040625 0.0310247703917
56 1 -0.033665625 -0.00125 0.011221875 0.0566620315188
57 1 -0.033665625 -0.00125 0.012403125 0.153089561101
58 1 -0.033665625 -0.00125 0.013584375 0.00735505684513
59 1 -0.032484375 -0.00125 -0.018309375 1.66286966069e-12
60 1 -0.032484375 -0.00125 -0.017128125 2.56940557795e-06
61 1 -0.032484375 -0.00125 -0.015946875 1.89626784189e-07
62 1 -0.032484375 -0.00125 -0.014765625 3.46217322374e-06
63 1 -0.032484375 -0.00125 -0.013584375 1.78202479908e-06
64 1 -0.032484375 -0.00125 -0.012403125 0.000580683274136
65 1 -0.032484375 -0.00125 -0.011221875 0.00320531589685
66 1 -0.032484375 -0.00125 -0.010040625 0.00274881722778
67 1 -0.032484375 -0.00125 -0.008859375 0.00154525669334
68 1 -0.032484375 -0.00125 -0.007678125 0.00254536019981
69 1 -0.032484375 -0.00125 -0.006496875 0.000279467852438
70 1 -0.032484375 -0.00125 -0.005315625 0.00206854672662
71 1 -0.032484375 -0.00125 -0.004134375 0.00303491689208
72 1 -0.032484375 -0.00125 -0.002953125 0.00195984918494
73 1 -0.032484375 -0.00125 -0.001771875 0.0255814305689
74 1 -0.032484375 -0.00125 -0.000590625 0.0672754174967
75 1 -0.032484375 -0.00125 0.000590625 0.0634840177326
76 1 -0.032484375 -0.00125 0.001771875 0.0108625816427
77 1 -0.032484375 -0.00125 0.002953125 0.00394936329025
78 1 -0.032484375 -0.00125 0.004134375 0.00125114993622
79 1 -0.032484375 -0.00125 0.005315625 0.000556924449987
80 1 -0.032484375 -0.00125 0.006496875 0.000233183371599
81 1 -0.032484375 -0.00125 0.007678125 0.0201794228822
82 1 -0.032484375 -0.00125 0.008859375 0.0641310728416
83 1 -0.032484375 -0.00125 0.010040625 0.0853156837244
84 1 -0.032484375 -0.00125 0.011221875 0.226574462272
85 1 -0.032484375 -0.00125 0.012403125 0.213339543442
86 1 -0.032484375 -0.00125 0.013584375 0.0204793248558
87 1 -0.032484375 -0.00125 0.014765625 0.13361431163
88 1 -0.032484375 -0.00125 0.015946875 0.26603964517
89 1 -0.032484375 -0.00125 0.017128125 0.124174655155
90 1 -0.032484375 -0.00125 0.018309375 0.0578832185752
91 1 -0.031303125 -0.00125 -0.019490625 4.16833361298e-15
92 1 -0.031303125 -0.00125 -0.018309375 1.57217535561e-11
93 1 -0.031303125 -0.00125 -0.017128125 4.07825419698e-08
94 1 -0.031303125 -0.00125 -0.015946875 2.46449408768e-07
95 1 -0.031303125 -0.00125 -0.014765625 2.17130336077e-06
96 1 -0.031303125 -0.00125 -0.013584375 1.61165834642e-05
97 1 -0.031303125 -0.00125 -0.012403125 0.000905798158242
98 1 -0.031303125 -0.00125 -0.011221875 0.00266054665793
99 1 -0.031303125 -0.00125 -0.010040625 0.0100669888259
100 1 -0.031303125 -0.00125 -0.008859375 0.00987818074907
101 1 -0.031303125 -0.00125 -0.007678125 0.00949366414742
102 1 -0.031303125 -0.00125 -0.006496875 0.0052114775536
103 1 -0.031303125 -0.00125 -0.005315625 0.0149775753561
104 1 -0.031303125 -0.00125 -0.004134375 0.0330874735744
105 1 -0.031303125 -0.00125 -0.002953125 0.0480003669027
106 1 -0.031303125 -0.00125 -0.001771875 0.0876515380483
107 1 -0.031303125 -0.00125 -0.000590625 0.0708276223564
108 1 -0.031303125 -0.00125 0.000590625 0.0314357127742
109 1 -0.031303125 -0.00125 0.001771875 0.0028745078221
110 1 -0.031303125 -0.00125 0.002953125 0.00182487548464
111 1 -0.031303125 -0.00125 0.004134375 0.000664801362682
112 1 -0.031303125 -0.00125 0.005315625 0.00140368608673
113 1 -0.031303125 -0.00125 0.006496875 0.000510953705158
114 1 -0.031303125 -0.00125 0.007678125 0.00683311041282
115 1 -0.031303125 -0.00125 0.008859375 0.0387384073679
116 1 -0.031303125 -0.00125 0.010040625 0.0607043429559
117 1 -0.031303125 -0.00125 0.011221875 0.16929584346
118 1 -0.031303125 -0.00125 0.012403125 0.235381128128
119 1 -0.031303125 -0.00125 0.013584375 0.0884043129025
120 1 -0.031303125 -0.00125 0.014765625 0.291503056116
121 1 -0.031303125 -0.00125 0.015946875 0.327716712416
122 1 -0.031303125 -0.00125 0.017128125 0.194422813152
123 1 -0.031303125 -0.00125 0.018309375 0.0552199908683
124 1 -0.031303125 -0.00125 0.019490625 0.0163510031719
125 1 -0.030121875 -0.00125 -0.020671875 1.81005613439e-30
126 1 -0.030121875 -0.00125 -0.019490625 1.41396140583e-17
127 1 -0.030121875 -0.00125 -0.018309375 1.50414523328e-12
128 1 -0.030121875 -0.00125 -0.017128125 2.68686526888e-07
129 1 -0.030121875 -0.00125 -0.015946875 2.21906635704e-07
130 1 -0.030121875 -0.00125 -0.014765625 1.51287232298e-05
131 1 -0.030121875 -0.00125 -0.013584375 0.00208104340516
132 1 -0.030121875 -0.00125 -0.012403125 0.00822653462369
133 1 -0.030121875 -0.00125 -0.011221875 0.0219291696426
134 1 -0.030121875 -0.00125 -0.010040625 0.0177489993521
135 1 -0.030121875 -0.00125 -0.008859375 0.0275524309176
136 1 -0.030121875 -0.00125 -0.007678125 0.03450585087
137 1 -0.030121875 -0.00125 -0.006496875 0.042296844293
138 1 -0.030121875 -0.00125 -0.005315625 0.0372660997897
139 1 -0.030121875 -0.00125 -0.004134375 0.068969957711
140 1 -0.030121875 -0.00125 -0.002953125 0.0776828646876
141 1 -0.030121875 -0.00125 -0.001771875 0.0647874733804
142 1 -0.030121875 -0.00125 -0.000590625 0.0591735658461
143 1 -0.030121875 -0.00125 0.000590625 0.0545853169939
144 1 -0.030121875 -0.00125 0.001771875 0.0123681148186
145 1 -0.030121875 -0.00125 0.002953125 0.005268084905
146 1 -0.030121875 -0.00125 0.004134375 0.000575108305216
147 1 -0.030121875 -0.00125 0.005315625 0.000638974643556
148 1 -0.030121875 -0.00125 0.006496875 0.00347952917784
149 1 -0.030121875 -0.00125 0.007678125 0.00908451069595
150 1 -0.030121875 -0.00125 0.008859375 0.0180539614607
151 1 -0.030121875 -0.00125 0.010040625 0.0388990316172
152 1 -0.030121875 -0.00125 0.011221875 0.118749102256
153 1 -0.030121875 -0.00125 0.012403125 0.232188455324
154 1 -0.030121875 -0.00125 0.013584375 0.129016809822
155 1 -0.030121875 -0.00125 0.014765625 0.327282688466
156 1 -0.030121875 -0.00125 0.015946875 0.431968991924
157 1 -0.030121875 -0.00125 0.017128125 0.35758103035
158 1 -0.030121875 -0.00125 0.018309375 0.195171878979
159 1 -0.030121875 -0.00125 0.019490625 0.0584108984627
160 1 -0.030121875 -0.00125 0.020671875 0.0243446200155
161 1 -0.028940625 -0.00125 -0.021853125 1.03714113055e-07
162 1 -0.028940625 -0.00125 -0.020671875 3.3925506327e-11
163 1 -0.028940625 -0.00125 -0.019490625 2.59527871284e-12
164 1 -0.028940625 -0.00125 -0.018309375 2.87349869066e-08
165 1 -0.028940625 -0.00125 -0.017128125 4.40855174876e-06
166 1 -0.028940625 -0.00125 -0.015946875 3.11586621533e-05
167 1 -0.028940625 -0.00125 -0.014765625 0.000865531344775
168 1 -0.028940625 -0.00125 -0.013584375 0.00200765839327
169 1 -0.028940625 -0.00125 -0.012403125 0.0109921279798
170 1 -0.028940625 -0.00125 -0.011221875 0.0256088134526
171 1 -0.028940625 -0.00125 -0.010040625 0.0173685578283
172 1 -0.028940625 -0.00125 -0.008859375 0.0213349032593
173 1 -0.028940625 -0.00125 -0.007678125 0.0304336831141
174 1 -0.028940625 -0.00125 -0.006496875 0.0520183061513
175 1 -0.028940625 -0.00125 -0.005315625 0.0374758281582
176 1 -0.028940625 -0.00125 -0.004134375 0.0954553809548
177 1 -0.028940625 -0.00125 -0.002953125 0.0807813776585
178 1 -0.028940625 -0.00125 -0.001771875 0.0346295681632
179 1 -0.028940625 -0.00125 -0.000590625 0.0400262798167
180 1 -0.028940625 -0.00125 0.000590625 0.0203015737074
181 1 -0.028940625 -0.00125 0.001771875 0.0183558774482
182 1 -0.028940625 -0.00125 0.002953125 0.0113079549592
183 1 -0.028940625 -0.00125 0.004134375 0.0016020931722
184 1 -0.028940625 -0.00125 0.005315625 0.00598248714096
185 1 -0.028940625 -0.00125 0.006496875 0.00564395791659
186 1 -0.028940625 -0.00125 0.007678125 0.00516456644735
187 1 -0.028940625 -0.00125 0.008859375 0.00446366383265
188 1 -0.028940625 -0.00125 0.010040625 0.0146573717844
189 1 -0.028940625 -0.00125 0.011221875 0.058917194868
190 1 -0.028940625 -0.00125 0.012403125 0.0530518967387
191 1 -0.028940625 -0.00125 0.013584375 0.0294805496655
192 1 -0.028940625 -0.00125 0.014765625 0.111875637094
193 1 -0.028940625 -0.00125 0.015946875 0.321010093005
194 1 -0.028940625 -0.00125 0.017128125 0.356890022287
195 1 -0.028940625 -0.00125 0.018309375 0.310085982545
196 1 -0.028940625 -0.00125 0.019490625 0.163292514754
197 1 -0.028940625 -0.00125 0.020671875 0.0821343065135
198 1 -0.028940625 -0.00125 0.021853125 0.12516540287
199 1 -0.027759375 -0.00125 -0.024215625 1.84211377368e-51
200 1 -0.027759375 -0.00125 -0.023034375 3.82432651851e-15
201 1 -0.027759375 -0.00125 -0.021853125 3.83399182369e-10
202 1 -0.027759375 -0.00125 -0.020671875 3.48990611518e-10
203 1 -0.027759375 -0.00125 -0.019490625 3.62807857677e-09
204 1 -0.027759375 -0.00125 -0.018309375 3.33641113126e-06
205 1 -0.027759375 -0.00125 -0.017128125 0.000195874090685
206 1 -0.027759375 -0.00125 -0.015946875 0.000551358643306
207 1 -0.027759375 -0.00125 -0.014765625 0.00384070741432
208 1 -0.027759375 -0.00125 -0.013584375 0.00319338982783
209 1 -0.027759375 -0.00125 -0.012403125 0.0302968484614
210 1 -0.027759375 -0.00125 -0.011221875 0.0734100252442
211 1 -0.027759375 -0.00125 -0.010040625 0.0248325637959
212 1 -0.027759375 -0.00125 -0.008859375 0.028181466711
213 1 -0.027759375 -0.00125 -0.007678125 0.0680688227383
214 1 -0.027759375 -0.00125 -0.006496875 0.111638013785
215 1 -0.027759375 -0.00125 -0.005315625 0.105226787158
216 1 -0.027759375 -0.00125 -0.004134375 0.0881459039961
217 1 -0.027759375 -0.00125 -0.002953125 0.0704504986467
218 1 -0.027759375 -0.00125 -0.001771875 0.0640333034413
219 1 -0.027759375 -0.00125 -0.000590625 0.0644870660516
220 1 -0.027759375 -0.00125 0.000590625 0.100377151496
221 1 -0.027759375 -0.00125 0.001771875 0.0638089254793
222 1 -0.027759375 -0.00125 0.002953125 0.0482810243399
223 1 -0.027759375 -0.00125 0.004134375 0.0161470342812
224 1 -0.027759375 -0.00125 0.005315625 0.0405779675591
225 1 -0.027759375 -0.00125 0.006496875 0.0242991262318
226 1 -0.027759375 -0.00125 0.007678125 0.0323348215323
227 1 -0.027759375 -0.00125 0.008859375 0.0288667016145
228 1 -0.027759375 -0.00125 0.010040625 0.032907682169
229 1 -0.027759375 -0.00125 0.011221875 0.0258778211385
230 1 -0.027759375 -0.00125 0.012403125 0.03164779385
231 1 -0.027759375 -0.00125 0.013584375 0.0110329677665
232 1 -0.027759375 -0.00125 0.014765625 0.0585981654673
233 1 -0.027759375 -0.00125 0.015946875 0.128644062156
234 1 -0.027759375 -0.00125 0.017128125 0.279493190037
235 1 -0.027759375 -0.00125 0.018309375 0.305780406792
236 1 -0.027759375 -0.00125 0.019490625 0.180425394279
237 1 -0.027759375 -0.00125 0.020671875 0.165344559843
238 1 -0.027759375 -0.00125 0.021853125 0.145239248892
239 1 -0.027759375 -0.00125 0.023034375 0.00674213500764
240 1 -0.027759375 -0.00125 0.024215625 1.76895665824e-05
241 1 -0.026578125 -0.00125 -0.026578125 4.86580143332e-15
242 1 -0.026578125 -0.00125 -0.025396875 4.14569344496e-50
243 1 -0.026578125 -0.00125 -0.024215625 2.06384185073e-81
244 1 -0.026578125 -0.00125 -0.023034375 1.3689040914e-34
245 1 -0.026578125 -0.00125 -0.021853125 1.81001166404e-18
246 1 -0.026578125 -0.00125 -0.020671875 6.25152887676e-09
247 1 -0.026578125 -0.00125 -0.019490625 2.57476734371e-05
248 1 -0.026578125 -0.00125 -0.018309375 0.000110514847018
249 1 -0.026578125 -0.00125 -0.017128125 0.0003353766208
250 1 -0.026578125 -0.00125 -0.015946875 0.00549122150514
251 1 -0.026578125 -0.00125 -0.014765625 0.0148661312719
252 1 -0.026578125 -0.00125 -0.013584375 0.0268710840781
253 1 -0.026578125 -0.00125 -0.012403125 0.0296890580387
254 1 -0.026578125 -0.00125 -0.011221875 0.0466771409885
255 1 -0.026578125 -0.00125 -0.010040625 0.0303542793635
256 1 -0.026578125 -0.00125 -0.008859375 0.039881328071
257 1 -0.026578125 -0.00125 -0.007678125 0.109385595695
258 1 -0.026578125 -0.00125 -0.006496875 0.236365795268
259 1 -0.026578125 -0.00125 -0.005315625 0.260219116009
260 1 -0.026578125 -0.00125 -0.004134375 0.166684737566
261 1 -0.026578125 -0.00125 -0.002953125 0.080709900118
262 1 -0.026578125 -0.00125 -0.001771875 0.0780155936089
263 1 -0.026578125 -0.00125 -0.000590625 0.114440362899
264 1 -0.026578125 -0.00125 0.000590625 0.0687138982423
265 1 -0.026578125 -0.00125 0.001771875 0.0497497793223
266 1 -0.026578125 -0.00125 0.002953125 0.0681662619332
267 1 -0.026578125 -0.00125 0.004134375 0.0840733334016
268 1 -0.026578125 -0.00125 0.005315625 0.0661952358309
269 1 -0.026578125 -0.00125 0.006496875 0.0800229693398
270 1 -0.026578125 -0.00125 0.007678125 0.0755253416671
271 1 -0.026578125 -0.00125 0.008859375 0.0419220487002
272 1 -0.026578125 -0.00125 0.010040625 0.0468135332552
273 1 -0.026578125 -0.00125 0.011221875 0.0243546631025
274 1 -0.026578125 -0.00125 0.012403125 0.0274404664705
275 1 -0.026578125 -0.00125 0.013584375 0.0292082005474
276 1 -0.026578125 -0.00125 0.014765625 0.0498101161109
277 1 -0.026578125 -0.00125 0.015946875 0.0957649703692
278 1 -0.026578125 -0.00125 0.017128125 0.165264615963
279 1 -0.026578125 -0.00125 0.018309375 0.267114506948
280 1 -0.026578125 -0.00125 0.019490625 0.21642654751
281 1 -0.026578125 -0.00125 0.020671875 0.187135950194
282 1 -0.026578125 -0.00125 0.021853125 0.03719919796
283 1 -0.026578125 -0.00125 0.023034375 0.00259195448067
284 1 -0.026578125 -0.00125 0.024215625 0.00112547908158
285 1 -0.026578125 -0.00125 0.025396875 0.000254733961795
286 1 -0.026578125 -0.00125 0.026578125 0.00188103884886
287 1 -0.025396875 -0.00125 -0.026578125 1.67222107441e-34
288 1 -0.025396875 -0.00125 -0.025396875 1.72823218653e-57
289 1 -0.025396875 -0.00125 -0.024215625 5.31254226113e-46
290 1 -0.025396875 -0.00125 -0.023034375 1.90887738166e-27
291 1 -0.025396875 -0.00125 -0.021853125 5.11541942702e-13
292 1 -0.025396875 -0.00125 -0.020671875 2.2568980143e-07
293 1 -0.025396875 -0.00125 -0.019490625 0.000105877413849
294 1 -0.025396875 -0.00125 -0.018309375 0.00111336607348
295 1 -0.025396875 -0.00125 -0.017128125 0.00521154270062
296 1 -0.025396875 -0.00125 -0.015946875 0.00722439553397
297 1 -0.025396875 -0.00125 -0.014765625 0.0137323186129
298 1 -0.025396875 -0.00125 -0.013584375 0.0628135094691
299 1 -0.025396875 -0.00125 -0.012403125 0.0764340059077
300 1 -0.025396875 -0.00125 -0.011221875 0.0866792983732
301 1 -0.025396875 -0.00125 -0.010040625 0.0799614789562
302 1 -0.025396875 -0.00125 -0.008859375 0.0753348990088
303 1 -0.025396875 -0.00125 -0.007678125 0.179099713268
304 1 -0.025396875 -0.00125 -0.006496875 0.292210094627
305 1 -0.025396875 -0.00125 -0.005315625 0.318448348794
306 1 -0.025396875 -0.00125 -0.004134375 0.247794652415
307 1 -0.025396875 -0.00125 -0.002953125 0.12106222175
308 1 -0.025396875 -0.00125 -0.001771875 0.0990947933961
309 1 -0.025396875 -0.00125 -0.000590625 0.0933151573627
310 1 -0.025396875 -0.00125 0.000590625 0.119807225438
311 1 -0.025396875 -0.00125 0.001771875 0.0859161703574
312 1 -0.025396875 -0.00125 0.002953125 0.148563127424
313 1 -0.025396875 -0.00125 0.004134375 0.150889716317
314 1 -0.025396875 -0.00125 0.005315625 0.143933221066
315 1 -0.025396875 -0.00125 0.006496875 0.135621766493
316 1 -0.025396875 -0.00125 0.007678125 0.163555857217
317 1 -0.025396875 -0.00125 0.008859375 0.10163639367
318 1 -0.025396875 -0.00125 0.010040625 0.10181716092
319 1 -0.025396875 -0.00125 0.011221875 0.0533108065343
320 1 -0.025396875 -0.00125 0.012403125 0.0737390866151
321 1 -0.025396875 -0.00125 0.013584375 0.0280738078912
322 1 -0.025396875 -0.00125 0.014765625 0.0950910910491
323 1 -0.025396875 -0.00125 0.015946875 0.131273785563
324 1 -0.025396875 -0.00125 0.017128125 0.235626692583
325 1 -0.025396875 -0.00125 0.018309375 0.285113719137
326 1 -0.025396875 -0.00125 0.019490625 0.156298162713
327 1 -0.025396875 -0.00125 0.020671875 0.123718786373
328 1 -0.025396875 -0.00125 0.021853125 0.0702527052573
329 1 -0.025396875 -0.00125 0.023034375 0.0134667878047
330 1 -0.025396875 -0.00125 0.024215625 0.00950104743051
331 1 -0.025396875 -0.00125 0.025396875 0.00582688388727
332 1 -0.025396875 -0.00125 0.026578125 0.000207606181932
333 1 -0.024215625 -0.00125 -0.027759375 2.68474475501e-15
334 1 -0.024215625 -0.00125 -0.026578125 3.75610175164e-21
335 1 -0.024215625 -0.00125 -0.025396875 1.98981354242e-25
336 1 -0.024215625 -0.00125 -0.024215625 1.460914391e-17
337 1 -0.024215625 -0.00125 -0.023034375 2.65354408496e-11
338 1 -0.024215625 -0.00125 -0.021853125 1.7145801393e-07
339 1 -0.024215625 -0.00125 -0.020671875 8.57944138524e-05
340 1 -0.024215625 -0.00125 -0.019490625 0.000167603516053
341 1 -0.024215625 -0.00125 -0.018309375 0.00187984617141
342 1 -0.024215625 -0.00125 -0.017128125 0.0062030045086
343 1 -0.024215625 -0.00125 -0.015946875 0.0172884859099
344 1 -0.024215625 -0.00125 -0.014765625 0.0352714083249
345 1 -0.024215625 -0.00125 -0.013584375 0.05339017297
346 1 -0.024215625 -0.00125 -0.012403125 0.0863277664755
347 1 -0.024215625 -0.00125 -0.011221875 0.103889690907
348 1 -0.024215625 -0.00125 -0.010040625 0.0958712745087
349 1 -0.024215625 -0.00125 -0.008859375 0.124397116719
350 1 -0.024215625 -0.00125 -0.007678125 0.20811152697
351 1 -0.024215625 -0.00125 -0.006496875 0.316062773936
352 1 -0.024215625 -0.00125 -0.005315625 0.459549424393
353 1 -0.024215625 -0.00125 -0.004134375 0.427213102526
354 1 -0.024215625 -0.00125 -0.002953125 0.305272107215
355 1 -0.024215625 -0.00125 -0.001771875 0.19993467742
356 1 -0.024215625 -0.00125 -0.000590625 0.13783701701
357 1 -0.024215625 -0.00125 0.000590625 0.145315538329
358 1 -0.024215625 -0.00125 0.001771875 0.192799308693
359 1 -0.024215625 -0.00125 0.002953125 0.212813192638
360 1 -0.024215625 -0.00125 0.004134375 0.200403355283
361 1 -0.024215625 -0.00125 0.005315625 0.180653689666
362 1 -0.024215625 -0.00125 0.006496875 0.159744106036
363 1 -0.024215625 -0.00125 0.007678125 0.212077699119
364 1 -0.024215625 -0.00125 0.008859375 0.155379947155
365 1 -0.024215625 -0.00125 0.010040625 0.154521210393
366 1 -0.024215625 -0.00125 0.011221875 0.130931392947
367 1 -0.024215625 -0.00125 0.012403125 0.151941272374
368 1 -0.024215625 -0.00125 0.013584375 0.134099810021
369 1 -0.024215625 -0.00125 0.014765625 0.179757813241
370 1 -0.024215625 -0.00125 0.015946875 0.20966984836
371 1 -0.024215625 -0.00125 0.017128125 0.286600265028
372 1 -0.024215625 -0.00125 0.018309375 0.341535839081
373 1 -0.024215625 -0.00125 0.019490625 0.227869164454
374 1 -0.024215625 -0.00125 0.020671875 0.134054279479
375 1 -0.024215625 -0.00125 0.021853125 0.0930337272883
376 1 -0.024215625 -0.00125 0.023034375 0.0589805601179
377 1 -0.024215625 -0.00125 0.024215625 0.0275381158113
378 1 -0.024215625 -0.00125 0.025396875 0.0143405443098
379 1 -0.024215625 -0.00125 0.026578125 0.00161102755779
380 1 -0.024215625 -0.00125 0.027759375 3.23610544122e-05
381 1 -0.023034375 -0.00125 -0.027759375 5.89561040689e-05
382 1 -0.023034375 -0.00125 -0.026578125 7.89589637064e-09
383 1 -0.023034375 -0.00125 -0.025396875 1.15783562796e-09
384 1 -0.023034375 -0.00125 -0.024215625 1.26266944981e-11
385 1 -0.023034375 -0.00125 -0.023034375 4.70221571923e-09
386 1 -0.023034375 -0.00125 -0.021853125 2.04620768739e-06
387 1 -0.023034375 -0.00125 -0.020671875 0.00136404794101
388 1 -0.023034375 -0.00125 -0.019490625 0.0112742687981
389 1 -0.023034375 -0.00125 -0.018309375 0.00446391794888
390 1 -0.023034375 -0.00125 -0.017128125 0.00719579137497
391 1 -0.023034375 -0.00125 -0.015946875 0.02950810637
392 1 -0.023034375 -0.00125 -0.014765625 0.0885392255138
393 1 -0.023034375 -0.00125 -0.013584375 0.0656183513235
394 1 -0.023034375 -0.00125 -0.012403125 0.100012660905
395 1 -0.023034375 -0.00125 -0.011221875 0.101022062408
396 1 -0.023034375 -0.00125 -0.010040625 0.105531910337
397 1 -0.023034375 -0.00125 -0.008859375 0.194329672769
398 1 -0.023034375 -0.00125 -0.007678125 0.201442095313
399 1 -0.023034375 -0.00125 -0.006496875 0.285587228278
400 1 -0.023034375 -0.00125 -0.005315625 0.51285326809
401 1 -0.023034375 -0.00125 -0.004134375 0.499689393233
402 1 -0.023034375 -0.00125 -0.002953125 0.423830742095
403 1 -0.023034375 -0.00125 -0.001771875 0.311926350762
404 1 -0.023034375 -0.00125 -0.000590625 0.25638937855
405 1 -0.023034375 -0.00125 0.000590625 0.202597580137
406 1 -0.023034375 -0.00125 0.001771875 0.158418470253
407 1 -0.023034375 -0.00125 0.002953125 0.174786669097
408 1 -0.023034375 -0.00125 0.004134375 0.146202354119
409 1 -0.023034375 -0.00125 0.005315625 0.147788913471
410 1 -0.023034375 -0.00125 0.006496875 0.153363116041
411 1 -0.023034375 -0.00125 0.007678125 0.237679019738
412 1 -0.023034375 -0.00125 0.008859375 0.20185790734
413 1 -0.023034375 -0.00125 0.010040625 0.18266320791
414 1 -0.023034375 -0.00125 0.011221875 0.193557655615
415 1 -0.023034375 -0.00125 0.012403125 0.140445547065
416 1 -0.023034375 -0.00125 0.013584375 0.145562696604
417 1 -0.023034375 -0.00125 0.014765625 0.219332145188
418 1 -0.023034375 -0.00125 0.015946875 0.235196782072
419 1 -0.023034375 -0.00125 0.017128125 0.393984406903
420 1 -0.023034375 -0.00125 0.018309375 0.427481864604
421 1 -0.023034375 -0.00125 0.019490625 0.314547948636
422 1 -0.023034375 -0.00125 0.020671875 0.207774693383
423 1 -0.023034375 -0.00125 0.021853125 0.143659026838
424 1 -0.023034375 -0.00125 0.023034375 0.131479807902
425 1 -0.023034375 -0.00125 0.024215625 0.128379421361
426 1 -0.023034375 -0.00125 0.025396875 0.0824590757888
427 1 -0.023034375 -0.00125 0.026578125 0.0414234216336
428 1 -0.023034375 -0.00125 0.027759375 0.0276463364015
429 1 -0.021853125 -0.00125 -0.028940625 0.00291437543068
430 1 -0.021853125 -0.00125 -0.027759375 0.0225026906747
431 1 -0.021853125 -0.00125 -0.026578125 0.00017207485728
432 1 -0.021853125 -0.00125 -0.025396875 4.56689297181e-07
433 1 -0.021853125 -0.00125 -0.024215625 6.99927615607e-07
434 1 -0.021853125 -0.00125 -0.023034375 7.30774028465e-06
435 1 -0.021853125 -0.00125 -0.021853125 4.72797869297e-06
436 1 -0.021853125 -0.00125 -0.020671875 0.00167922150539
437 1 -0.021853125 -0.00125 -0.019490625 0.00926574046144
438 1 -0.021853125 -0.00125 -0.018309375 0.0183380387161
439 1 -0.021853125 -0.00125 -0.017128125 0.0370528934473
440 1 -0.021853125 -0.00125 -0.015946875 0.0755363900196
441 1 -0.021853125 -0.00125 -0.014765625 0.107449753536
442 1 -0.021853125 -0.00125 -0.013584375 0.15165296934
443 1 -0.021853125 -0.00125 -0.012403125 0.121541131408
444 1 -0.021853125 -0.00125 -0.011221875 0.122936366326
445 1 -0.021853125 -0.00125 -0.010040625 0.12932520671
446 1 -0.021853125 -0.00125 -0.008859375 0.221751639167
447 1 -0.021853125 -0.00125 -0.007678125 0.244890092036
448 1 -0.021853125 -0.00125 -0.006496875 0.366002681949
449 1 -0.021853125 -0.00125 -0.005315625 0.425883436661
450 1 -0.021853125 -0.00125 -0.004134375 0.439485870834
451 1 -0.021853125 -0.00125 -0.002953125 0.428149700216
452 1 -0.021853125 -0.00125 -0.001771875 0.359060018237
453 1 -0.021853125 -0.00125 -0.000590625 0.304847832056
454 1 -0.021853125 -0.00125 0.000590625 0.202176722594
455 1 -0.021853125 -0.00125 0.001771875 0.169028824917
456 1 -0.021853125 -0.00125 0.002953125 0.16040101497
457 1 -0.021853125 -0.00125 0.004134375 0.136197660593
458 1 -0.021853125 -0.00125 0.005315625 0.141605583046
459 1 -0.021853125 -0.00125 0.006496875 0.176190794609
460 1 -0.021853125 -0.00125 0.007678125 0.187335072323
461 1 -0.021853125 -0.00125 0.008859375 0.231849849094
462 1 -0.021853125 -0.00125 0.010040625 0.242097832459
463 1 -0.021853125 -0.00125 0.011221875 0.257920035425
464 1 -0.021853125 -0.00125 0.012403125 0.191028506955
465 1 -0.021853125 -0.00125 0.013584375 0.146231788027
466 1 -0.021853125 -0.00125 0.014765625 0.246942218379
467 1 -0.021853125 -0.00125 0.015946875 0.360661446062
468 1 -0.021853125 -0.00125 0.017128125 0.40563525776
469 1 -0.021853125 -0.00125 0.018309375 0.436298649826
470 1 -0.021853125 -0.00125 0.019490625 0.342723843708
471 1 -0.021853125 -0.00125 0.020671875 0.249315808882
472 1 -0.021853125 -0.00125 0.021853125 0.235145943569
473 1 -0.021853125 -0.00125 0.023034375 0.139285142047
474 1 -0.021853125 -0.00125 0.024215625 0.148279846228
475 1 -0.021853125 -0.00125 0.025396875 0.174042496954
476 1 -0.021853125 -0.00125 0.026578125 0.142687682163
477 1 -0.021853125 -0.00125 0.027759375 0.14548247184
478 1 -0.021853125 -0.00125 0.028940625 0.134738854051
479 1 -0.020671875 -0.00125 -0.030121875 4.99294414878e-20
480 1 -0.020671875 -0.00125 -0.028940625 1.29256136718e-15
481 1 -0.020671875 -0.00125 -0.027759375 4.08652335723e-07
482 1 -0.020671875 -0.00125 -0.026578125 4.79195235917e-09
483 1 -0.020671875 -0.00125 -0.025396875 1.17900164145e-14
484 1 -0.020671875 -0.00125 -0.024215625 1.42676485105e-11
485 1 -0.020671875 -0.00125 -0.023034375 3.81727751809e-10
486 1 -0.020671875 -0.00125 -0.021853125 1.5059373311e-05
487 1 -0.020671875 -0.00125 -0.020671875 0.000646183836462
488 1 -0.020671875 -0.00125 -0.019490625 0.017671610878
489 1 -0.020671875 -0.00125 -0.018309375 0.0505448379958
490 1 -0.020671875 -0.00125 -0.017128125 0.0600752277925
491 1 -0.020671875 -0.00125 -0.015946875 0.0774215182039
492 1 -0.020671875 -0.00125 -0.014765625 0.0968488007592
493 1 -0.020671875 -0.00125 -0.013584375 0.132916643678
494 1 -0.020671875 -0.00125 -0.012403125 0.123402762385
495 1 -0.020671875 -0.00125 -0.011221875 0.148400044162
496 1 -0.020671875 -0.00125 -0.010040625 0.1618981302
497 1 -0.020671875 -0.00125 -0.008859375 0.241297295437
498 1 -0.020671875 -0.00125 -0.007678125 0.24803726434
499 1 -0.020671875 -0.00125 -0.006496875 0.425241122967
500 1 -0.020671875 -0.00125 -0.005315625 0.511349997052
501 1 -0.020671875 -0.00125 -0.004134375 0.451655778855
502 1 -0.020671875 -0.00125 -0.002953125 0.451297760769
503 1 -0.020671875 -0.00125 -0.001771875 0.372501351739
504 1 -0.020671875 -0.00125 -0.000590625 0.342369238996
505 1 -0.020671875 -0.00125 0.000590625 0.267585331547
506 1 -0.020671875 -0.00125 0.001771875 0.229968748555
507 1 -0.020671875 -0.00125 0.002953125 0.16764499777
508 1 -0.020671875 -0.00125 0.004134375 0.172394376971
509 1 -0.020671875 -0.00125 0.005315625 0.124013482889
510 1 -0.020671875 -0.00125 0.006496875 0.228596343219
511 1 -0.020671875 -0.00125 0.007678125 0.185220611113
512 1 -0.020671875 -0.00125 0.008859375 0.228911365319
513 1 -0.020671875 -0.00125 0.010040625 0.253770142386
514 1 -0.020671875 -0.00125 0.011221875 0.261796403861
515 1 -0.020671875 -0.00125 0.012403125 0.305696182271
516 1 -0.020671875 -0.00125 0.013584375 0.28285517168
517 1 -0.020671875 -0.00125 0.014765625 0.404334889253
518 1 -0.020671875 -0.00125 0.015946875 0.45216528107
519 1 -0.020671875 -0.00125 0.017128125 0.444572303016
520 1 -0.020671875 -0.00125 0.018309375 0.41442671734
521 1 -0.020671875 -0.00125 0.019490625 0.370642745729
522 1 -0.020671875 -0.00125 0.020671875 0.326129687442
523 1 -0.020671875 -0.00125 0.021853125 0.287174497156
524 1 -0.020671875 -0.00125 0.023034375 0.241768337391
525 1 -0.020671875 -0.00125 0.024215625 0.170282581169
526 1 -0.020671875 -0.00125 0.025396875 0.217969735932