ITEM: TIMESTEP
0
ITEM: NUMBER OF ATOMS
3080
ITEM: BOX BOUNDS ss ss ss
-3.7007399999999996e-02 3.7007399999999996e-02
-2.0002499999999999e-03 2.5000000000000004e-07
-3.7007399999999996e-02 3.7007399999999996e-02
ITEM: ATOMS id type x y z c_1
0 1 -0.037209375 -0.00125 -0.000590625 3.62902483391e-27
1 1 -0.036028125 -0.00125 -0.007678125 4.76816343857e-61
2 1 -0.036028125 -0.00125 -0.006496875 8.14728218376e-91
3 1 -0.036028125 -0.00125 -0.005315625 2.9465727857e-185
4 1 -0.036028125 -0.00125 -0.004134375 2.70013621516e-105
5 1 -0.036028125 -0.00125 -0.002953125 3.77624221879e-42
6 1 -0.036028125 -0.00125 -0.001771875 7.87085438316e-71
7 1 -0.036028125 -0.00125 -0.000590625 4.88800176594e-40
8 1 -0.036028125 -0.00125 0.000590625 6.29837181509e-19
9 1 -0.036028125 -0.00125 0.001771875 1.58725360721e-13
10 1 -0.036028125 -0.00125 0.002953125 1.32969475224e-17
11 1 -0.036028125 -0.00125 0.004134375 1.23995207539e-29
12 1 -0.036028125 -0.00125 0.005315625 1.62287962846e-52
13 1 -0.036028125 -0.00125 0.006496875 3.06659896476e-39
14 1 -0.036028125 -0.00125 0.007678125 2.07746716118e-30
15 1 -0.034846875 -0.00125 -0.011221875 7.50334181276e-36
16 1 -0.034846875 -0.00125 -0.010040625 4.11252063222e-45
17 1 -0.034846875 -0.00125 -0.008859375 2.48676135384e-108
18 1 -0.034846875 -0.00125 -0.007678125 6.78874554018e-132
19 1 -0.034846875 -0.00125 -0.006496875 4.00934120185e-230
20 1 -0.034846875 -0.00125 -0.005315625 3.75536354399e-193
21 1 -0.034846875 -0.00125 -0.004134375 2.22428827579e-74
22 1 -0.034846875 -0.00125 -0.002953125 9.97669726846e-93
23 1 -0.034846875 -0.00125 -0.001771875 2.37617287919e-82
24 1 -0.034846875 -0.00125 -0.000590625 1.30272068752e-30
25 1 -0.034846875 -0.00125 0.000590625 7.85114982439e-25
26 1 -0.034846875 -0.00125 0.001771875 2.33633924127e-34
27 1 -0.034846875 -0.00125 0.002953125 2.61303567397e-20
28 1 -0.034846875 -0.00125 0.004134375 2.24900326503e-63
29 1 -0.034846875 -0.00125 0.005315625 1.40837288427e-131
30 1 -0.034846875 -0.00125 0.006496875 1.74671566403e-124
31 1 -0.034846875 -0.00125 0.007678125 1.30998840286e-34
32 1 -0.034846875 -0.00125 0.008859375 7.17386299339e-08
33 1 -0.034846875 -0.00125 0.010040625 9.19807593605e-31
34 1 -0.034846875 -0.00125 0.011221875 2.72889421102e-08
35 1 -0.033665625 -0.00125 -0.013584375 4.39198723388e-61
36 1 -0.033665625 -0.00125 -0.012403125 2.14332600833e-20
37 1 -0.033665625 -0.00125 -0.011221875 6.71074549932e-30
38 1 -0.033665625 -0.00125 -0.010040625 2.69362547783e-24
39 1 -0.033665625 -0.00125 -0.008859375 1.08274595924e-54
40 1 -0.033665625 -0.00125 -0.007678125 6.0259224764e-141
41 1 -0.033665625 -0.00125 -0.006496875 2.50781796354e-175
42 1 -0.033665625 -0.00125 -0.005315625 1.50740804282e-215
43 1 -0.033665625 -0.00125 -0.004134375 2.77394800713e-86
44 1 -0.033665625 -0.00125 -0.002953125 4.59763670709e-47
45 1 -0.033665625 -0.00125 -0.001771875 5.165198846e-46
46 1 -0.033665625 -0.00125 -0.000590625 4.83461805334e-24
47 1 -0.033665625 -0.00125 0.000590625 6.59827370539e-21
48 1 -0.033665625 -0.00125 0.001771875 1.2077086541e-24
49 1 -0.033665625 -0.00125 0.002953125 2.52633583604e-31
50 1 -0.033665625 -0.00125 0.004134375 9.6681990316e-60
51 1 -0.033665625 -0.00125 0.005315625 1.26709891565e-92
52 1 -0.033665625 -0.00125 0.006496875 2.33753029806e-96
53 1 -0.033665625 -0.00125 0.007678125 1.08510002241e-27
54 1 -0.033665625 -0.00125 0.008859375 6.00847269672e-12
55 1 -0.033665625 -0.00125 0.010040625 1.86448103018e-15
56 1 -0.033665625 -0.00125 0.011221875 6.32671333307e-07
57 1 -0.033665625 -0.00125 0.012403125 1.69922046288e-05
58 1 -0.033665625 -0.00125 0.013584375 5.59252401151e-22
59 1 -0.032484375 -0.00125 -0.018309375 2.05010869571e-303
60 1 -0.032484375 -0.00125 -0.017128125 9.61667979383e-227
61 1 -0.032484375 -0.00125 -0.015946875 2.07467517132e-156
62 1 -0.032484375 -0.00125 -0.014765625 5.38449952652e-55
63 1 -0.032484375 -0.00125 -0.013584375 5.88278274098e-41
64 1 -0.032484375 -0.00125 -0.012403125 8.13151675367e-28
65 1 -0.032484375 -0.00125 -0.011221875 2.35716119034e-24
66 1 -0.032484375 -0.00125 -0.010040625 2.62408228636e-30
67 1 -0.032484375 -0.00125 -0.008859375 1.28801660589e-30
68 1 -0.032484375 -0.00125 -0.007678125 8.29460709738e-23
69 1 -0.032484375 -0.00125 -0.006496875 5.29332265945e-88
70 1 -0.032484375 -0.00125 -0.005315625 1.08583307297e-57
71 1 -0.032484375 -0.00125 -0.004134375 2.00590778473e-38
72 1 -0.032484375 -0.00125 -0.002953125 2.3227172712e-14
73 1 -0.032484375 -0.00125 -0.001771875 2.39732739078e-18
74 1 -0.032484375 -0.00125 -0.000590625 3.01493827797e-12
75 1 -0.032484375 -0.00125 0.000590625 3.06362241389e-11
76 1 -0.032484375 -0.00125 0.001771875 4.04596154818e-12
77 1 -0.032484375 -0.00125 0.002953125 1.39120999475e-20
78 1 -0.032484375 -0.00125 0.004134375 2.45861953272e-66
79 1 -0.032484375 -0.00125 0.005315625 2.67763263414e-31
80 1 -0.032484375 -0.00125 0.006496875 4.98592222348e-19
81 1 -0.032484375 -0.00125 0.007678125 3.57362553736e-14
82 1 -0.032484375 -0.00125 0.008859375 1.69978034688e-20
83 1 -0.032484375 -0.00125 0.010040625 6.38537683309e-20
84 1 -0.032484375 -0.00125 0.011221875 1.50471774452e-08
85 1 -0.032484375 -0.00125 0.012403125 7.3573681982e-08
86 1 -0.032484375 -0.00125 0.013584375 4.73004542602e-30
87 1 -0.032484375 -0.00125 0.014765625 2.52014674412e-17
88 1 -0.032484375 -0.00125 0.015946875 5.6163977372e-07
89 1 -0.032484375 -0.00125 0.017128125 8.17920731523e-05
90 1 -0.032484375 -0.00125 0.018309375 5.12527258643e-05
91 1 -0.031303125 -0.00125 -0.019490625 0.0
92 1 -0.031303125 -0.00125 -0.018309375 0.0
93 1 -0.031303125 -0.00125 -0.017128125 0.0
94 1 -0.031303125 -0.00125 -0.015946875 1.3776173249e-261
95 1 -0.031303125 -0.00125 -0.014765625 1.19206308519e-72
96 1 -0.031303125 -0.00125 -0.013584375 2.64656392878e-46
97 1 -0.031303125 -0.00125 -0.012403125 4.46947033607e-37
98 1 -0.031303125 -0.00125 -0.011221875 2.30132571231e-25
99 1 -0.031303125 -0.00125 -0.010040625 2.69906162848e-22
100 1 -0.031303125 -0.00125 -0.008859375 6.5004551596e-24
101 1 -0.031303125 -0.00125 -0.007678125 8.94467043996e-19
102 1 -0.031303125 -0.00125 -0.006496875 1.04721999632e-26
103 1 -0.031303125 -0.00125 -0.005315625 6.99409420182e-23
104 1 -0.031303125 -0.00125 -0.004134375 9.66974983775e-14
105 1 -0.031303125 -0.00125 -0.002953125 4.816587581e-11
106 1 -0.031303125 -0.00125 -0.001771875 1.27322641566e-08
107 1 -0.031303125 -0.00125 -0.000590625 4.81953284032e-08
108 1 -0.031303125 -0.00125 0.000590625 6.58094419649e-09
109 1 -0.031303125 -0.00125 0.001771875 3.47669625482e-07
110 1 -0.031303125 -0.00125 0.002953125 9.99653962548e-06
111 1 -0.031303125 -0.00125 0.004134375 2.46333121299e-14
112 1 -0.031303125 -0.00125 0.005315625 1.93446280929e-07
113 1 -0.031303125 -0.00125 0.006496875 2.14110345768e-06
114 1 -0.031303125 -0.00125 0.007678125 6.65798759418e-10
115 1 -0.031303125 -0.00125 0.008859375 2.68455555671e-17
116 1 -0.031303125 -0.00125 0.010040625 4.2883036952e-21
117 1 -0.031303125 -0.00125 0.011221875 1.3616493212e-12
118 1 -0.031303125 -0.00125 0.012403125 2.52152516292e-11
119 1 -0.031303125 -0.00125 0.013584375 2.04161895308e-15
120 1 -0.031303125 -0.00125 0.014765625 4.06783075962e-11
121 1 -0.031303125 -0.00125 0.015946875 1.17570578446e-08
122 1 -0.031303125 -0.00125 0.017128125 3.03164391301e-07
123 1 -0.031303125 -0.00125 0.018309375 3.10878999784e-07
124 1 -0.031303125 -0.00125 0.019490625 5.89433082676e-11
125 1 -0.030121875 -0.00125 -0.020671875 0.0
126 1 -0.030121875 -0.00125 -0.019490625 0.0
127 1 -0.030121875 -0.00125 -0.018309375 0.0
128 1 -0.030121875 -0.00125 -0.017128125 7.41594809228e-165
129 1 -0.030121875 -0.00125 -0.015946875 1.59845635115e-305
130 1 -0.030121875 -0.00125 -0.014765625 1.00366878697e-54
131 1 -0.030121875 -0.00125 -0.013584375 7.68922689706e-24
132 1 -0.030121875 -0.00125 -0.012403125 7.78156282043e-14
133 1 -0.030121875 -0.00125 -0.011221875 4.17397593207e-08
134 1 -0.030121875 -0.00125 -0.010040625 1.53981591762e-17
135 1 -0.030121875 -0.00125 -0.008859375 5.70547065658e-14
136 1 -0.030121875 -0.00125 -0.007678125 1.8186867336e-10
137 1 -0.030121875 -0.00125 -0.006496875 3.78091859038e-11
138 1 -0.030121875 -0.00125 -0.005315625 3.72747266325e-09
139 1 -0.030121875 -0.00125 -0.004134375 1.56968881811e-05
140 1 -0.030121875 -0.00125 -0.002953125 1.71956684973e-06
141 1 -0.030121875 -0.00125 -0.001771875 0.000321625628128
142 1 -0.030121875 -0.00125 -0.000590625 0.000435125829048
143 1 -0.030121875 -0.00125 0.000590625 0.000226372493644
144 1 -0.030121875 -0.00125 0.001771875 0.0235127603681
145 1 -0.030121875 -0.00125 0.002953125 0.0112004704268
146 1 -0.030121875 -0.00125 0.004134375 0.001025429619
147 1 -0.030121875 -0.00125 0.005315625 0.000790827739239
148 1 -0.030121875 -0.00125 0.006496875 0.00431993920066
149 1 -0.030121875 -0.00125 0.007678125 4.28533440743e-07
150 1 -0.030121875 -0.00125 0.008859375 1.20673380242e-10
151 1 -0.030121875 -0.00125 0.010040625 3.73611098534e-21
152 1 -0.030121875 -0.00125 0.011221875 2.2032166491e-09
153 1 -0.030121875 -0.00125 0.012403125 1.47138902016e-11
154 1 -0.030121875 -0.00125 0.013584375 2.745401285e-17
155 1 -0.030121875 -0.00125 0.014765625 4.06137818746e-14
156 1 -0.030121875 -0.00125 0.015946875 2.52333733954e-12
157 1 -0.030121875 -0.00125 0.017128125 4.18740056961e-08
158 1 -0.030121875 -0.00125 0.018309375 5.48462908642e-10
159 1 -0.030121875 -0.00125 0.019490625 3.82935588264e-14
160 1 -0.030121875 -0.00125 0.020671875 5.34290422446e-11
161 1 -0.028940625 -0.00125 -0.021853125 0.0
162 1 -0.028940625 -0.00125 -0.020671875 0.0
163 1 -0.028940625 -0.00125 -0.019490625 0.0
164 1 -0.028940625 -0.00125 -0.018309375 7.5873909078e-282
165 1 -0.028940625 -0.00125 -0.017128125 3.70239785246e-150
166 1 -0.028940625 -0.00125 -0.015946875 6.44356194449e-85
167 1 -0.028940625 -0.00125 -0.014765625 8.76698695986e-58
168 1 -0.028940625 -0.00125 -0.013584375 6.51574505833e-35
169 1 -0.028940625 -0.00125 -0.012403125 7.03514363534e-22
170 1 -0.028940625 -0.00125 -0.011221875 1.54095821847e-16
171 1 -0.028940625 -0.00125 -0.010040625 5.46685891811e-12
172 1 -0.028940625 -0.00125 -0.008859375 1.03515774306e-08
173 1 -0.028940625 -0.00125 -0.007678125 2.57979673184e-06
174 1 -0.028940625 -0.00125 -0.006496875 4.09174806844e-05
175 1 -0.028940625 -0.00125 -0.005315625 7.85196073188e-05
176 1 -0.028940625 -0.00125 -0.004134375 0.000288253550996
177 1 -0.028940625 -0.00125 -0.002953125 0.000543875874331
178 1 -0.028940625 -0.00125 -0.001771875 7.34616863953e-05
179 1 -0.028940625 -0.00125 -0.000590625 0.0101160996695
180 1 -0.028940625 -0.00125 0.000590625 0.0750638920682
181 1 -0.028940625 -0.00125 0.001771875 0.274138257898
182 1 -0.028940625 -0.00125 0.002953125 0.0967287016917
183 1 -0.028940625 -0.00125 0.004134375 0.108185473417
184 1 -0.028940625 -0.00125 0.005315625 0.0749466270621
185 1 -0.028940625 -0.00125 0.006496875 0.0289298082936
186 1 -0.028940625 -0.00125 0.007678125 0.000429001908442
187 1 -0.028940625 -0.00125 0.008859375 3.08590622663e-05
188 1 -0.028940625 -0.00125 0.010040625 4.44897890104e-07
189 1 -0.028940625 -0.00125 0.011221875 1.28955109361e-07
190 1 -0.028940625 -0.00125 0.012403125 9.62895074892e-13
191 1 -0.028940625 -0.00125 0.013584375 1.96568756863e-15
192 1 -0.028940625 -0.00125 0.014765625 1.74829835767e-17
193 1 -0.028940625 -0.00125 0.015946875 6.48406430235e-13
194 1 -0.028940625 -0.00125 0.017128125 2.41371560087e-09
195 1 -0.028940625 -0.00125 0.018309375 2.31397756531e-11
196 1 -0.028940625 -0.00125 0.019490625 1.03757350165e-09
197 1 -0.028940625 -0.00125 0.020671875 9.1888598602e-06
198 1 -0.028940625 -0.00125 0.021853125 0.00112220235583
199 1 -0.027759375 -0.00125 -0.024215625 0.0
200 1 -0.027759375 -0.00125 -0.023034375 0.0
201 1 -0.027759375 -0.00125 -0.021853125 0.0
202 1 -0.027759375 -0.00125 -0.020671875 0.0
203 1 -0.027759375 -0.00125 -0.019490625 9.32669153403e-299
204 1 -0.027759375 -0.00125 -0.018309375 3.10090394585e-246
205 1 -0.027759375 -0.00125 -0.017128125 2.12482722551e-81
206 1 -0.027759375 -0.00125 -0.015946875 3.47621376664e-54
207 1 -0.027759375 -0.00125 -0.014765625 1.15951468156e-24
208 1 -0.027759375 -0.00125 -0.013584375 3.18913228569e-29
209 1 -0.027759375 -0.00125 -0.012403125 1.8208043994e-07
210 1 -0.027759375 -0.00125 -0.011221875 5.41362756107e-07
211 1 -0.027759375 -0.00125 -0.010040625 1.08559171514e-05
212 1 -0.027759375 -0.00125 -0.008859375 7.21783163041e-06
213 1 -0.027759375 -0.00125 -0.007678125 3.72425447769e-07
214 1 -0.027759375 -0.00125 -0.006496875 9.11117083948e-05
215 1 -0.027759375 -0.00125 -0.005315625 7.92233692876e-06
216 1 -0.027759375 -0.00125 -0.004134375 0.000651190273333
217 1 -0.027759375 -0.00125 -0.002953125 0.00693413819917
218 1 -0.027759375 -0.00125 -0.001771875 0.00500215479185
219 1 -0.027759375 -0.00125 -0.000590625 0.0363130376667
220 1 -0.027759375 -0.00125 0.000590625 0.0765543845995
221 1 -0.027759375 -0.00125 0.001771875 0.148403256998
222 1 -0.027759375 -0.00125 0.002953125 0.132772850015
223 1 -0.027759375 -0.00125 0.004134375 0.228005804274
224 1 -0.027759375 -0.00125 0.005315625 0.113406750215
225 1 -0.027759375 -0.00125 0.006496875 0.0511971756239
226 1 -0.027759375 -0.00125 0.007678125 0.0286838628257
227 1 -0.027759375 -0.00125 0.008859375 0.0051680527677
228 1 -0.027759375 -0.00125 0.010040625 0.000732495846984
229 1 -0.027759375 -0.00125 0.011221875 0.000117728375771
230 1 -0.027759375 -0.00125 0.012403125 4.5815421178e-07
231 1 -0.027759375 -0.00125 0.013584375 4.68279670187e-08
232 1 -0.027759375 -0.00125 0.014765625 2.07663985752e-10
233 1 -0.027759375 -0.00125 0.015946875 1.55950901759e-10
234 1 -0.027759375 -0.00125 0.017128125 3.75019638356e-13
235 1 -0.027759375 -0.00125 0.018309375 3.52078768465e-11
236 1 -0.027759375 -0.00125 0.019490625 1.52754263946e-07
237 1 -0.027759375 -0.00125 0.020671875 0.00352685067037
238 1 -0.027759375 -0.00125 0.021853125 0.111395617835
239 1 -0.027759375 -0.00125 0.023034375 0.0321404533154
240 1 -0.027759375 -0.00125 0.024215625 0.00333407469124
241 1 -0.026578125 -0.00125 -0.026578125 0.0
242 1 -0.026578125 -0.00125 -0.025396875 0.0
243 1 -0.026578125 -0.00125 -0.024215625 0.0
244 1 -0.026578125 -0.00125 -0.023034375 0.0
245 1 -0.026578125 -0.00125 -0.021853125 0.0
246 1 -0.026578125 -0.00125 -0.020671875 0.0
247 1 -0.026578125 -0.00125 -0.019490625 4.36726625229e-85
248 1 -0.026578125 -0.00125 -0.018309375 3.8943296031e-73
249 1 -0.026578125 -0.00125 -0.017128125 2.72533171242e-87
250 1 -0.026578125 -0.00125 -0.015946875 1.44273142468e-39
251 1 -0.026578125 -0.00125 -0.014765625 9.29753266292e-13
252 1 -0.026578125 -0.00125 -0.013584375 6.47279306417e-09
253 1 -0.026578125 -0.00125 -0.012403125 1.17944273235e-05
254 1 -0.026578125 -0.00125 -0.011221875 0.00106070016742
255 1 -0.026578125 -0.00125 -0.010040625 0.00134892307557
256 1 -0.026578125 -0.00125 -0.008859375 3.11150146907e-05
257 1 -0.026578125 -0.00125 -0.007678125 7.99635350578e-05
258 1 -0.026578125 -0.00125 -0.006496875 3.46459200783e-05
259 1 -0.026578125 -0.00125 -0.005315625 0.000132665235018
260 1 -0.026578125 -0.00125 -0.004134375 0.00141952970353
261 1 -0.026578125 -0.00125 -0.002953125 0.0110272117163
262 1 -0.026578125 -0.00125 -0.001771875 0.0203144558588
263 1 -0.026578125 -0.00125 -0.000590625 0.0804442705359
264 1 -0.026578125 -0.00125 0.000590625 0.0461268414039
265 1 -0.026578125 -0.00125 0.001771875 0.0410026507794
266 1 -0.026578125 -0.00125 0.002953125 0.0818866591601
267 1 -0.026578125 -0.00125 0.004134375 0.140376621259
268 1 -0.026578125 -0.00125 0.005315625 0.116509874042
269 1 -0.026578125 -0.00125 0.006496875 0.108186580166
270 1 -0.026578125 -0.00125 0.007678125 0.0537903610654
271 1 -0.026578125 -0.00125 0.008859375 0.01804714251
272 1 -0.026578125 -0.00125 0.010040625 0.0745244478087
273 1 -0.026578125 -0.00125 0.011221875 0.0397066496687
274 1 -0.026578125 -0.00125 0.012403125 0.0348632464357
275 1 -0.026578125 -0.00125 0.013584375 0.0100907970786
276 1 -0.026578125 -0.00125 0.014765625 1.41126230926e-05
277 1 -0.026578125 -0.00125 0.015946875 3.59412817692e-07
278 1 -0.026578125 -0.00125 0.017128125 1.67823456656e-06
279 1 -0.026578125 -0.00125 0.018309375 6.40405003942e-08
280 1 -0.026578125 -0.00125 0.019490625 0.000239360934234
281 1 -0.026578125 -0.00125 0.020671875 0.0330068840081
282 1 -0.026578125 -0.00125 0.021853125 0.0799057892023
283 1 -0.026578125 -0.00125 0.023034375 0.032845605205
284 1 -0.026578125 -0.00125 0.024215625 0.00406616436125
285 1 -0.026578125 -0.00125 0.025396875 0.00459100511241
286 1 -0.026578125 -0.00125 0.026578125 0.0559882920349
287 1 -0.025396875 -0.00125 -0.026578125 0.0
288 1 -0.025396875 -0.00125 -0.025396875 0.0
289 1 -0.025396875 -0.00125 -0.024215625 0.0
290 1 -0.025396875 -0.00125 -0.023034375 0.0
291 1 -0.025396875 -0.00125 -0.021853125 0.0
292 1 -0.025396875 -0.00125 -0.020671875 7.63444396399e-262
293 1 -0.025396875 -0.00125 -0.019490625 1.84463466283e-54
294 1 -0.025396875 -0.00125 -0.018309375 9.31960507208e-45
295 1 -0.025396875 -0.00125 -0.017128125 6.08849665086e-26
296 1 -0.025396875 -0.00125 -0.015946875 3.18236303184e-46
297 1 -0.025396875 -0.00125 -0.014765625 1.62641671163e-16
298 1 -0.025396875 -0.00125 -0.013584375 1.36734605614e-08
299 1 -0.025396875 -0.00125 -0.012403125 0.00143015807243
300 1 -0.025396875 -0.00125 -0.011221875 0.00619402649319
301 1 -0.025396875 -0.00125 -0.010040625 0.0365262670878
302 1 -0.025396875 -0.00125 -0.008859375 0.0301772669304
303 1 -0.025396875 -0.00125 -0.007678125 0.00229377430618
304 1 -0.025396875 -0.00125 -0.006496875 0.000521078145983
305 1 -0.025396875 -0.00125 -0.005315625 0.000524215553269
306 1 -0.025396875 -0.00125 -0.004134375 0.00471329196807
307 1 -0.025396875 -0.00125 -0.002953125 0.0309906324076
308 1 -0.025396875 -0.00125 -0.001771875 0.0416297673983
309 1 -0.025396875 -0.00125 -0.000590625 0.0254573496147
310 1 -0.025396875 -0.00125 0.000590625 0.0470630665835
311 1 -0.025396875 -0.00125 0.001771875 0.0550744281439
312 1 -0.025396875 -0.00125 0.002953125 0.0865572662363
313 1 -0.025396875 -0.00125 0.004134375 0.133351443901
314 1 -0.025396875 -0.00125 0.005315625 0.10279915785
315 1 -0.025396875 -0.00125 0.006496875 0.117001956277
316 1 -0.025396875 -0.00125 0.007678125 0.0688631988965
317 1 -0.025396875 -0.00125 0.008859375 0.104682401804
318 1 -0.025396875 -0.00125 0.010040625 0.140434189138
319 1 -0.025396875 -0.00125 0.011221875 0.0506561916176
320 1 -0.025396875 -0.00125 0.012403125 0.147882498975
321 1 -0.025396875 -0.00125 0.013584375 0.115876865927
322 1 -0.025396875 -0.00125 0.014765625 0.000425981029478
323 1 -0.025396875 -0.00125 0.015946875 0.00328422863649
324 1 -0.025396875 -0.00125 0.017128125 1.35865400875e-05
325 1 -0.025396875 -0.00125 0.018309375 1.7741862771e-05
326 1 -0.025396875 -0.00125 0.019490625 0.000678320390084
327 1 -0.025396875 -0.00125 0.020671875 0.0594625355355
328 1 -0.025396875 -0.00125 0.021853125 0.0346303112859
329 1 -0.025396875 -0.00125 0.023034375 0.00750350952803
330 1 -0.025396875 -0.00125 0.024215625 0.0170252617826
331 1 -0.025396875 -0.00125 0.025396875 0.0218535672144
332 1 -0.025396875 -0.00125 0.026578125 0.0533955133549
333 1 -0.024215625 -0.00125 -0.027759375 0.0
334 1 -0.024215625 -0.00125 -0.026578125 0.0
335 1 -0.024215625 -0.00125 -0.025396875 0.0
336 1 -0.024215625 -0.00125 -0.024215625 0.0
337 1 -0.024215625 -0.00125 -0.023034375 0.0
338 1 -0.024215625 -0.00125 -0.021853125 0.0
339 1 -0.024215625 -0.00125 -0.020671875 2.04698859912e-117
340 1 -0.024215625 -0.00125 -0.019490625 1.95560662604e-43
341 1 -0.024215625 -0.00125 -0.018309375 1.62472555794e-26
342 1 -0.024215625 -0.00125 -0.017128125 4.56009950605e-28
343 1 -0.024215625 -0.00125 -0.015946875 1.72295854757e-15
344 1 -0.024215625 -0.00125 -0.014765625 3.1655763443e-10
345 1 -0.024215625 -0.00125 -0.013584375 0.000249969752332
346 1 -0.024215625 -0.00125 -0.012403125 0.0180831015702
347 1 -0.024215625 -0.00125 -0.011221875 0.0474408367806
348 1 -0.024215625 -0.00125 -0.010040625 0.105602432525
349 1 -0.024215625 -0.00125 -0.008859375 0.0880264158942
350 1 -0.024215625 -0.00125 -0.007678125 0.0405930667804
351 1 -0.024215625 -0.00125 -0.006496875 0.0340382237859
352 1 -0.024215625 -0.00125 -0.005315625 0.00391898751758
353 1 -0.024215625 -0.00125 -0.004134375 0.0109157515071
354 1 -0.024215625 -0.00125 -0.002953125 0.0584659757378
355 1 -0.024215625 -0.00125 -0.001771875 0.0922439121068
356 1 -0.024215625 -0.00125 -0.000590625 0.0823716981355
357 1 -0.024215625 -0.00125 0.000590625 0.083186536766
358 1 -0.024215625 -0.00125 0.001771875 0.0436724211849
359 1 -0.024215625 -0.00125 0.002953125 0.0642982297345
360 1 -0.024215625 -0.00125 0.004134375 0.0899799266191
361 1 -0.024215625 -0.00125 0.005315625 0.104241979477
362 1 -0.024215625 -0.00125 0.006496875 0.0781925354118
363 1 -0.024215625 -0.00125 0.007678125 0.191173348419
364 1 -0.024215625 -0.00125 0.008859375 0.247699221932
365 1 -0.024215625 -0.00125 0.010040625 0.193332893122
366 1 -0.024215625 -0.00125 0.011221875 0.175464695959
367 1 -0.024215625 -0.00125 0.012403125 0.240880525119
368 1 -0.024215625 -0.00125 0.013584375 0.278262012842
369 1 -0.024215625 -0.00125 0.014765625 0.109471144082
370 1 -0.024215625 -0.00125 0.015946875 0.0177728213004
371 1 -0.024215625 -0.00125 0.017128125 0.00159420959437
372 1 -0.024215625 -0.00125 0.018309375 0.00117240624625
373 1 -0.024215625 -0.00125 0.019490625 0.00368694992572
374 1 -0.024215625 -0.00125 0.020671875 0.0112581405562
375 1 -0.024215625 -0.00125 0.021853125 0.0065096181557
376 1 -0.024215625 -0.00125 0.023034375 0.00673229159485
377 1 -0.024215625 -0.00125 0.024215625 0.0250311627624
378 1 -0.024215625 -0.00125 0.025396875 0.117978092517
379 1 -0.024215625 -0.00125 0.026578125 0.0402886644782
380 1 -0.024215625 -0.00125 0.027759375 0.00261152428833
381 1 -0.023034375 -0.00125 -0.027759375 0.0
382 1 -0.023034375 -0.00125 -0.026578125 0.0
383 1 -0.023034375 -0.00125 -0.025396875 0.0
384 1 -0.023034375 -0.00125 -0.024215625 0.0
385 1 -0.023034375 -0.00125 -0.023034375 0.0
386 1 -0.023034375 -0.00125 -0.021853125 2.4317202735e-226
387 1 -0.023034375 -0.00125 -0.020671875 1.53564757401e-109
388 1 -0.023034375 -0.00125 -0.019490625 4.71973529111e-15
389 1 -0.023034375 -0.00125 -0.018309375 8.81798120208e-32
390 1 -0.023034375 -0.00125 -0.017128125 1.49672034912e-22
391 1 -0.023034375 -0.00125 -0.015946875 2.25267776061e-14
392 1 -0.023034375 -0.00125 -0.014765625 3.00608461982e-17
393 1 -0.023034375 -0.00125 -0.013584375 1.04135689504e-08
394 1 -0.023034375 -0.00125 -0.012403125 0.0142117738112
395 1 -0.023034375 -0.00125 -0.011221875 0.00780881785542
396 1 -0.023034375 -0.00125 -0.010040625 0.00453094011488
397 1 -0.023034375 -0.00125 -0.008859375 0.0171856156046
398 1 -0.023034375 -0.00125 -0.007678125 0.00563582192241
399 1 -0.023034375 -0.00125 -0.006496875 0.0249498923809
400 1 -0.023034375 -0.00125 -0.005315625 0.0130668358355
401 1 -0.023034375 -0.00125 -0.004134375 0.0843078420239
402 1 -0.023034375 -0.00125 -0.002953125 0.0743796070256
403 1 -0.023034375 -0.00125 -0.001771875 0.0737300384193
404 1 -0.023034375 -0.00125 -0.000590625 0.113826301607
405 1 -0.023034375 -0.00125 0.000590625 0.10578209164
406 1 -0.023034375 -0.00125 0.001771875 0.0611691145256
407 1 -0.023034375 -0.00125 0.002953125 0.0558261000179
408 1 -0.023034375 -0.00125 0.004134375 0.0720294801936
409 1 -0.023034375 -0.00125 0.005315625 0.187763221346
410 1 -0.023034375 -0.00125 0.006496875 0.122533030529
411 1 -0.023034375 -0.00125 0.007678125 0.0872335882252
412 1 -0.023034375 -0.00125 0.008859375 0.290416370179
413 1 -0.023034375 -0.00125 0.010040625 0.16651412705
414 1 -0.023034375 -0.00125 0.011221875 0.151577265287
415 1 -0.023034375 -0.00125 0.012403125 0.159789191555
416 1 -0.023034375 -0.00125 0.013584375 0.295933537368
417 1 -0.023034375 -0.00125 0.014765625 0.193902164729
418 1 -0.023034375 -0.00125 0.015946875 0.182832055395
419 1 -0.023034375 -0.00125 0.017128125 0.0233117125317
420 1 -0.023034375 -0.00125 0.018309375 0.0117793113969
421 1 -0.023034375 -0.00125 0.019490625 0.0149282114931
422 1 -0.023034375 -0.00125 0.020671875 0.0130566827081
423 1 -0.023034375 -0.00125 0.021853125 0.00929229800566
424 1 -0.023034375 -0.00125 0.023034375 0.0122594464773
425 1 -0.023034375 -0.00125 0.024215625 0.0910596717594
426 1 -0.023034375 -0.00125 0.025396875 0.296176241855
427 1 -0.023034375 -0.00125 0.026578125 0.162818716027
428 1 -0.023034375 -0.00125 0.027759375 0.134600716673
429 1 -0.021853125 -0.00125 -0.028940625 0.0
430 1 -0.021853125 -0.00125 -0.027759375 0.0
431 1 -0.021853125 -0.00125 -0.026578125 0.0
432 1 -0.021853125 -0.00125 -0.025396875 0.0
433 1 -0.021853125 -0.00125 -0.024215625 0.0
434 1 -0.021853125 -0.00125 -0.023034375 0.0
435 1 -0.021853125 -0.00125 -0.021853125 0.0
436 1 -0.021853125 -0.00125 -0.020671875 2.83106041533e-74
437 1 -0.021853125 -0.00125 -0.019490625 1.23778782422e-17
438 1 -0.021853125 -0.00125 -0.018309375 1.56366321369e-17
439 1 -0.021853125 -0.00125 -0.017128125 4.48944178872e-27
440 1 -0.021853125 -0.00125 -0.015946875 5.14254293705e-15
441 1 -0.021853125 -0.00125 -0.014765625 1.4951508759e-09
442 1 -0.021853125 -0.00125 -0.013584375 1.59960894824e-05
443 1 -0.021853125 -0.00125 -0.012403125 0.0012001460191
444 1 -0.021853125 -0.00125 -0.011221875 0.00111821688491
445 1 -0.021853125 -0.00125 -0.010040625 0.00303383256961
446 1 -0.021853125 -0.00125 -0.008859375 0.00519132509803
447 1 -0.021853125 -0.00125 -0.007678125 0.00879646239904
448 1 -0.021853125 -0.00125 -0.006496875 0.007976692827
449 1 -0.021853125 -0.00125 -0.005315625 0.0133794176065
450 1 -0.021853125 -0.00125 -0.004134375 0.0520962408174
451 1 -0.021853125 -0.00125 -0.002953125 0.100033304782
452 1 -0.021853125 -0.00125 -0.001771875 0.138927141951
453 1 -0.021853125 -0.00125 -0.000590625 0.119351070929
454 1 -0.021853125 -0.00125 0.000590625 0.0372964816349
455 1 -0.021853125 -0.00125 0.001771875 0.0846772346611
456 1 -0.021853125 -0.00125 0.002953125 0.139680241659
457 1 -0.021853125 -0.00125 0.004134375 0.12261053472
458 1 -0.021853125 -0.00125 0.005315625 0.111652679946
459 1 -0.021853125 -0.00125 0.006496875 0.097577915601
460 1 -0.021853125 -0.00125 0.007678125 0.171462393579
461 1 -0.021853125 -0.00125 0.008859375 0.319047463812
462 1 -0.021853125 -0.00125 0.010040625 0.225418832288
463 1 -0.021853125 -0.00125 0.011221875 0.16260639389
464 1 -0.021853125 -0.00125 0.012403125 0.214141172506
465 1 -0.021853125 -0.00125 0.013584375 0.264366998306
466 1 -0.021853125 -0.00125 0.014765625 0.270293761286
467 1 -0.021853125 -0.00125 0.015946875 0.191137917459
468 1 -0.021853125 -0.00125 0.017128125 0.118468022835
469 1 -0.021853125 -0.00125 0.018309375 0.0831020063416
470 1 -0.021853125 -0.00125 0.019490625 0.052722119023
471 1 -0.021853125 -0.00125 0.020671875 0.101140072914
472 1 -0.021853125 -0.00125 0.021853125 0.0925486744582
473 1 -0.021853125 -0.00125 0.023034375 0.0620518425847
474 1 -0.021853125 -0.00125 0.024215625 0.12326757088
475 1 -0.021853125 -0.00125 0.025396875 0.323176448789
476 1 -0.021853125 -0.00125 0.026578125 0.405308548308
477 1 -0.021853125 -0.00125 0.027759375 0.472952322046
478 1 -0.021853125 -0.00125 0.028940625 0.254356390508
479 1 -0.020671875 -0.00125 -0.030121875 0.0
480 1 -0.020671875 -0.00125 -0.028940625 0.0
481 1 -0.020671875 -0.00125 -0.027759375 0.0
482 1 -0.020671875 -0.00125 -0.026578125 0.0
483 1 -0.020671875 -0.00125 -0.025396875 0.0
484 1 -0.020671875 -0.00125 -0.024215625 0.0
485 1 -0.020671875 -0.00125 -0.023034375 0.0
486 1 -0.020671875 -0.00125 -0.021853125 1.24257133826e-229
487 1 -0.020671875 -0.00125 -0.020671875 8.26148721779e-78
488 1 -0.020671875 -0.00125 -0.019490625 3.62795549945e-15
489 1 -0.020671875 -0.00125 -0.018309375 1.29746694572e-15
490 1 -0.020671875 -0.00125 -0.017128125 8.05981906992e-15
491 1 -0.020671875 -0.00125 -0.015946875 6.05726816665e-15
492 1 -0.020671875 -0.00125 -0.014765625 2.16375379193e-08
493 1 -0.020671875 -0.00125 -0.013584375 2.13632634135e-05
494 1 -0.020671875 -0.00125 -0.012403125 0.000158152789029
495 1 -0.020671875 -0.00125 -0.011221875 0.000511175161311
496 1 -0.020671875 -0.00125 -0.010040625 0.00201792259604
497 1 -0.020671875 -0.00125 -0.008859375 0.000138621801589
498 1 -0.020671875 -0.00125 -0.007678125 0.000138435209254
499 1 -0.020671875 -0.00125 -0.006496875 0.000698542327446
500 1 -0.020671875 -0.00125 -0.005315625 0.00342258633428
501 1 -0.020671875 -0.00125 -0.004134375 0.0122623216437
502 1 -0.020671875 -0.00125 -0.002953125 0.0565736911647
503 1 -0.020671875 -0.00125 -0.001771875 0.147119149566
504 1 -0.020671875 -0.00125 -0.000590625 0.177186307301
505 1 -0.020671875 -0.00125 0.000590625 0.0972769735676
506 1 -0.020671875 -0.00125 0.001771875 0.0597375363292
507 1 -0.020671875 -0.00125 0.002953125 0.0688617424565
508 1 -0.020671875 -0.00125 0.004134375 0.102947932317
509 1 -0.020671875 -0.00125 0.005315625 0.141585994709
510 1 -0.020671875 -0.00125 0.006496875 0.125578994721
511 1 -0.020671875 -0.00125 0.007678125 0.233815265688
512 1 -0.020671875 -0.00125 0.008859375 0.133993754695
513 1 -0.020671875 -0.00125 0.010040625 0.188708399519
514 1 -0.020671875 -0.00125 0.011221875 0.117578338923
515 1 -0.020671875 -0.00125 0.012403125 0.196950572958
516 1 -0.020671875 -0.00125 0.013584375 0.252614112888
517 1 -0.020671875 -0.00125 0.014765625 0.301325096003
518 1 -0.020671875 -0.00125 0.015946875 0.270156611594
519 1 -0.020671875 -0.00125 0.017128125 0.257355722258
520 1 -0.020671875 -0.00125 0.018309375 0.188672918979
521 1 -0.020671875 -0.00125 0.019490625 0.121998105949
522 1 -0.020671875 -0.00125 0.020671875 0.219939205743
523 1 -0.020671875 -0.00125 0.021853125 0.331846398801
524 1 -0.020671875 -0.00125 0.023034375 0.273395548544
525 1 -0.020671875 -0.00125 0.024215625 0.383473584765
526 1 -0.020671875 -0.00125 0.025396875 0.455532813058
527 1 -0.020671875 -0.00125 0.026578125 0.412949917872
528 1 -0.020671875 -0.00125 0.027759375 0.430655238233
529 1 -0.020671875 -0.00125 0.028940625 0.121129852842