ITEM: TIMESTEP
0
ITEM: NUMBER OF ATOMS
3080
ITEM: BOX BOUNDS ss ss ss
-3.7007399999999996e-02 3.7007399999999996e-02
-2.0002499999999999e-03 2.5000000000000004e-07
-3.7007399999999996e-02 3.7007399999999996e-02
ITEM: ATOMS id type x y z c_1
0 1 -0.037209375 -0.00125 -0.000590625 0.999999999796
1 1 -0.036028125 -0.00125 -0.007678125 4.09448326187e-23
2 1 -0.036028125 -0.00125 -0.006496875 3.47482322094e-50
3 1 -0.036028125 -0.00125 -0.005315625 6.77411151693e-96
4 1 -0.036028125 -0.00125 -0.004134375 1.28258874384e-55
5 1 -0.036028125 -0.00125 -0.002953125 1.46624306635e-10
6 1 -0.036028125 -0.00125 -0.001771875 1.3616902718e-06
7 1 -0.036028125 -0.00125 -0.000590625 5.78565727929e-09
8 1 -0.036028125 -0.00125 0.000590625 1.54024753637e-62
9 1 -0.036028125 -0.00125 0.001771875 2.1744622725e-39
10 1 -0.036028125 -0.00125 0.002953125 1.04123475919e-129
11 1 -0.036028125 -0.00125 0.004134375 8.71452658069e-198
12 1 -0.036028125 -0.00125 0.005315625 2.13223888204e-189
13 1 -0.036028125 -0.00125 0.006496875 1.94242551944e-83
14 1 -0.036028125 -0.00125 0.007678125 4.91574186355e-67
15 1 -0.034846875 -0.00125 -0.011221875 0.000115468882438
16 1 -0.034846875 -0.00125 -0.010040625 8.99964789676e-09
17 1 -0.034846875 -0.00125 -0.008859375 1.90989521655e-06
18 1 -0.034846875 -0.00125 -0.007678125 2.21602621223e-61
19 1 -0.034846875 -0.00125 -0.006496875 1.19354358995e-36
20 1 -0.034846875 -0.00125 -0.005315625 1.47003188972e-113
21 1 -0.034846875 -0.00125 -0.004134375 2.31141021217e-103
22 1 -0.034846875 -0.00125 -0.002953125 5.16278295589e-17
23 1 -0.034846875 -0.00125 -0.001771875 1.59257079033e-15
24 1 -0.034846875 -0.00125 -0.000590625 1.1846601624e-17
25 1 -0.034846875 -0.00125 0.000590625 1.38248474387e-71
26 1 -0.034846875 -0.00125 0.001771875 1.13394187232e-179
27 1 -0.034846875 -0.00125 0.002953125 0.0
28 1 -0.034846875 -0.00125 0.004134375 0.0
29 1 -0.034846875 -0.00125 0.005315625 2.86217868648e-305
30 1 -0.034846875 -0.00125 0.006496875 2.56684248188e-199
31 1 -0.034846875 -0.00125 0.007678125 1.61278583266e-148
32 1 -0.034846875 -0.00125 0.008859375 1.36380543472e-23
33 1 -0.034846875 -0.00125 0.010040625 1.38060596615e-50
34 1 -0.034846875 -0.00125 0.011221875 1.76616821312e-49
35 1 -0.033665625 -0.00125 -0.013584375 1.02852455311e-07
36 1 -0.033665625 -0.00125 -0.012403125 0.00261836106312
37 1 -0.033665625 -0.00125 -0.011221875 3.44151016865e-05
38 1 -0.033665625 -0.00125 -0.010040625 2.63757382755e-08
39 1 -0.033665625 -0.00125 -0.008859375 3.24408376879e-11
40 1 -0.033665625 -0.00125 -0.007678125 4.30289713761e-21
41 1 -0.033665625 -0.00125 -0.006496875 3.0246882183e-42
42 1 -0.033665625 -0.00125 -0.005315625 1.77922284738e-120
43 1 -0.033665625 -0.00125 -0.004134375 4.74287393018e-45
44 1 -0.033665625 -0.00125 -0.002953125 3.6278608289e-39
45 1 -0.033665625 -0.00125 -0.001771875 6.60354475854e-24
46 1 -0.033665625 -0.00125 -0.000590625 1.52387956938e-16
47 1 -0.033665625 -0.00125 0.000590625 4.34445589152e-54
48 1 -0.033665625 -0.00125 0.001771875 6.75639766093e-146
49 1 -0.033665625 -0.00125 0.002953125 4.21359815882e-190
50 1 -0.033665625 -0.00125 0.004134375 0.0
51 1 -0.033665625 -0.00125 0.005315625 0.0
52 1 -0.033665625 -0.00125 0.006496875 8.85667469017e-146
53 1 -0.033665625 -0.00125 0.007678125 4.97300310386e-73
54 1 -0.033665625 -0.00125 0.008859375 7.70286259058e-25
55 1 -0.033665625 -0.00125 0.010040625 2.51259307634e-37
56 1 -0.033665625 -0.00125 0.011221875 2.32618499507e-55
57 1 -0.033665625 -0.00125 0.012403125 1.50729577132e-34
58 1 -0.033665625 -0.00125 0.013584375 2.67777640828e-160
59 1 -0.032484375 -0.00125 -0.018309375 9.14966218093e-07
60 1 -0.032484375 -0.00125 -0.017128125 9.00716600577e-09
61 1 -0.032484375 -0.00125 -0.015946875 0.000337749055464
62 1 -0.032484375 -0.00125 -0.014765625 1.20808275731e-06
63 1 -0.032484375 -0.00125 -0.013584375 3.02369208045e-11
64 1 -0.032484375 -0.00125 -0.012403125 0.000107292711513
65 1 -0.032484375 -0.00125 -0.011221875 4.88795533755e-05
66 1 -0.032484375 -0.00125 -0.010040625 9.46202512452e-10
67 1 -0.032484375 -0.00125 -0.008859375 1.25066662755e-08
68 1 -0.032484375 -0.00125 -0.007678125 3.3883543524e-08
69 1 -0.032484375 -0.00125 -0.006496875 2.44057602334e-17
70 1 -0.032484375 -0.00125 -0.005315625 3.82343241909e-17
71 1 -0.032484375 -0.00125 -0.004134375 7.37834681006e-31
72 1 -0.032484375 -0.00125 -0.002953125 1.09865482189e-35
73 1 -0.032484375 -0.00125 -0.001771875 7.13894832159e-20
74 1 -0.032484375 -0.00125 -0.000590625 3.60089564956e-18
75 1 -0.032484375 -0.00125 0.000590625 8.99205482115e-37
76 1 -0.032484375 -0.00125 0.001771875 8.72417863999e-18
77 1 -0.032484375 -0.00125 0.002953125 6.16708748575e-60
78 1 -0.032484375 -0.00125 0.004134375 8.25258549295e-48
79 1 -0.032484375 -0.00125 0.005315625 1.78328218865e-140
80 1 -0.032484375 -0.00125 0.006496875 3.5194684236e-65
81 1 -0.032484375 -0.00125 0.007678125 7.30097900712e-48
82 1 -0.032484375 -0.00125 0.008859375 2.04652205174e-27
83 1 -0.032484375 -0.00125 0.010040625 6.56670462723e-31
84 1 -0.032484375 -0.00125 0.011221875 8.22426329699e-36
85 1 -0.032484375 -0.00125 0.012403125 4.74422509274e-79
86 1 -0.032484375 -0.00125 0.013584375 0.0
87 1 -0.032484375 -0.00125 0.014765625 5.86617965829e-102
88 1 -0.032484375 -0.00125 0.015946875 8.2965369064e-47
89 1 -0.032484375 -0.00125 0.017128125 4.82986590772e-90
90 1 -0.032484375 -0.00125 0.018309375 3.77632101265e-96
91 1 -0.031303125 -0.00125 -0.019490625 2.57447184651e-12
92 1 -0.031303125 -0.00125 -0.018309375 8.47432887174e-07
93 1 -0.031303125 -0.00125 -0.017128125 3.60871519243e-05
94 1 -0.031303125 -0.00125 -0.015946875 4.66573335805e-06
95 1 -0.031303125 -0.00125 -0.014765625 4.06629719951e-07
96 1 -0.031303125 -0.00125 -0.013584375 8.36048790771e-10
97 1 -0.031303125 -0.00125 -0.012403125 1.36542480497e-06
98 1 -0.031303125 -0.00125 -0.011221875 8.5515559274e-07
99 1 -0.031303125 -0.00125 -0.010040625 5.65468069786e-09
100 1 -0.031303125 -0.00125 -0.008859375 1.51409791689e-12
101 1 -0.031303125 -0.00125 -0.007678125 4.63079838647e-09
102 1 -0.031303125 -0.00125 -0.006496875 6.84670519641e-10
103 1 -0.031303125 -0.00125 -0.005315625 1.70645667788e-10
104 1 -0.031303125 -0.00125 -0.004134375 8.43975063957e-18
105 1 -0.031303125 -0.00125 -0.002953125 3.90497221339e-11
106 1 -0.031303125 -0.00125 -0.001771875 1.86292822225e-08
107 1 -0.031303125 -0.00125 -0.000590625 1.45913955027e-11
108 1 -0.031303125 -0.00125 0.000590625 7.42547205989e-12
109 1 -0.031303125 -0.00125 0.001771875 1.62147721176e-10
110 1 -0.031303125 -0.00125 0.002953125 2.67751476708e-12
111 1 -0.031303125 -0.00125 0.004134375 2.28376824506e-12
112 1 -0.031303125 -0.00125 0.005315625 1.2497460555e-14
113 1 -0.031303125 -0.00125 0.006496875 6.42867283418e-22
114 1 -0.031303125 -0.00125 0.007678125 1.12031753923e-25
115 1 -0.031303125 -0.00125 0.008859375 7.7762388741e-47
116 1 -0.031303125 -0.00125 0.010040625 5.92150505959e-45
117 1 -0.031303125 -0.00125 0.011221875 1.86746512734e-34
118 1 -0.031303125 -0.00125 0.012403125 5.73052650938e-28
119 1 -0.031303125 -0.00125 0.013584375 1.90306365181e-93
120 1 -0.031303125 -0.00125 0.014765625 9.84037496241e-95
121 1 -0.031303125 -0.00125 0.015946875 7.0484058759e-102
122 1 -0.031303125 -0.00125 0.017128125 3.96221067676e-184
123 1 -0.031303125 -0.00125 0.018309375 5.51922148304e-113
124 1 -0.031303125 -0.00125 0.019490625 5.91510580653e-145
125 1 -0.030121875 -0.00125 -0.020671875 8.00126245792e-15
126 1 -0.030121875 -0.00125 -0.019490625 8.87179722835e-10
127 1 -0.030121875 -0.00125 -0.018309375 1.61242631786e-09
128 1 -0.030121875 -0.00125 -0.017128125 8.82001433289e-07
129 1 -0.030121875 -0.00125 -0.015946875 3.91833653417e-09
130 1 -0.030121875 -0.00125 -0.014765625 1.05799245264e-11
131 1 -0.030121875 -0.00125 -0.013584375 6.89626255233e-17
132 1 -0.030121875 -0.00125 -0.012403125 9.42085074419e-07
133 1 -0.030121875 -0.00125 -0.011221875 1.82390315683e-07
134 1 -0.030121875 -0.00125 -0.010040625 1.94640755637e-10
135 1 -0.030121875 -0.00125 -0.008859375 1.54296338934e-14
136 1 -0.030121875 -0.00125 -0.007678125 1.45654341688e-10
137 1 -0.030121875 -0.00125 -0.006496875 2.80297407346e-13
138 1 -0.030121875 -0.00125 -0.005315625 2.83160786619e-07
139 1 -0.030121875 -0.00125 -0.004134375 1.56218732714e-15
140 1 -0.030121875 -0.00125 -0.002953125 7.91242856261e-07
141 1 -0.030121875 -0.00125 -0.001771875 1.82499102855e-09
142 1 -0.030121875 -0.00125 -0.000590625 1.55221479975e-12
143 1 -0.030121875 -0.00125 0.000590625 1.40943994766e-08
144 1 -0.030121875 -0.00125 0.001771875 2.59704656473e-07
145 1 -0.030121875 -0.00125 0.002953125 2.74471661239e-07
146 1 -0.030121875 -0.00125 0.004134375 1.57429313335e-05
147 1 -0.030121875 -0.00125 0.005315625 1.16803100954e-07
148 1 -0.030121875 -0.00125 0.006496875 1.56704317531e-14
149 1 -0.030121875 -0.00125 0.007678125 1.14806040816e-28
150 1 -0.030121875 -0.00125 0.008859375 1.92270830743e-49
151 1 -0.030121875 -0.00125 0.010040625 4.76331749645e-21
152 1 -0.030121875 -0.00125 0.011221875 5.07578024054e-48
153 1 -0.030121875 -0.00125 0.012403125 9.19800165286e-26
154 1 -0.030121875 -0.00125 0.013584375 6.10048034853e-27
155 1 -0.030121875 -0.00125 0.014765625 3.24580703539e-44
156 1 -0.030121875 -0.00125 0.015946875 2.65838879602e-121
157 1 -0.030121875 -0.00125 0.017128125 5.28845412815e-90
158 1 -0.030121875 -0.00125 0.018309375 1.3264004183e-143
159 1 -0.030121875 -0.00125 0.019490625 0.0
160 1 -0.030121875 -0.00125 0.020671875 0.0
161 1 -0.028940625 -0.00125 -0.021853125 0.0423778870934
162 1 -0.028940625 -0.00125 -0.020671875 0.000313212439377
163 1 -0.028940625 -0.00125 -0.019490625 3.73758207972e-06
164 1 -0.028940625 -0.00125 -0.018309375 9.36109030397e-12
165 1 -0.028940625 -0.00125 -0.017128125 1.2771404504e-14
166 1 -0.028940625 -0.00125 -0.015946875 9.70002844431e-11
167 1 -0.028940625 -0.00125 -0.014765625 6.65130593455e-11
168 1 -0.028940625 -0.00125 -0.013584375 5.98879335542e-16
169 1 -0.028940625 -0.00125 -0.012403125 1.24403626469e-14
170 1 -0.028940625 -0.00125 -0.011221875 2.7773647811e-12
171 1 -0.028940625 -0.00125 -0.010040625 1.75038778247e-10
172 1 -0.028940625 -0.00125 -0.008859375 3.25626257398e-11
173 1 -0.028940625 -0.00125 -0.007678125 1.50889590434e-10
174 1 -0.028940625 -0.00125 -0.006496875 1.33427467369e-06
175 1 -0.028940625 -0.00125 -0.005315625 3.36640787605e-05
176 1 -0.028940625 -0.00125 -0.004134375 1.83516908514e-05
177 1 -0.028940625 -0.00125 -0.002953125 4.12894241364e-06
178 1 -0.028940625 -0.00125 -0.001771875 2.59953920699e-06
179 1 -0.028940625 -0.00125 -0.000590625 6.6480855831e-07
180 1 -0.028940625 -0.00125 0.000590625 0.000115039143222
181 1 -0.028940625 -0.00125 0.001771875 0.000261527024425
182 1 -0.028940625 -0.00125 0.002953125 0.000694182373471
183 1 -0.028940625 -0.00125 0.004134375 1.05688387732e-08
184 1 -0.028940625 -0.00125 0.005315625 3.40888100272e-13
185 1 -0.028940625 -0.00125 0.006496875 2.33475737278e-13
186 1 -0.028940625 -0.00125 0.007678125 1.71328619723e-24
187 1 -0.028940625 -0.00125 0.008859375 5.04862218463e-36
188 1 -0.028940625 -0.00125 0.010040625 2.88487557233e-37
189 1 -0.028940625 -0.00125 0.011221875 1.01996555185e-35
190 1 -0.028940625 -0.00125 0.012403125 2.62861517435e-35
191 1 -0.028940625 -0.00125 0.013584375 1.0089519831e-25
192 1 -0.028940625 -0.00125 0.014765625 7.46026732035e-50
193 1 -0.028940625 -0.00125 0.015946875 5.94819004937e-58
194 1 -0.028940625 -0.00125 0.017128125 3.52889030043e-62
195 1 -0.028940625 -0.00125 0.018309375 2.54590313939e-84
196 1 -0.028940625 -0.00125 0.019490625 0.0
197 1 -0.028940625 -0.00125 0.020671875 0.0
198 1 -0.028940625 -0.00125 0.021853125 4.19228119645e-171
199 1 -0.027759375 -0.00125 -0.024215625 0.000195591036009
200 1 -0.027759375 -0.00125 -0.023034375 0.022672395599
201 1 -0.027759375 -0.00125 -0.021853125 0.236644778771
202 1 -0.027759375 -0.00125 -0.020671875 0.0262986905184
203 1 -0.027759375 -0.00125 -0.019490625 5.02552508267e-05
204 1 -0.027759375 -0.00125 -0.018309375 6.11070124744e-07
205 1 -0.027759375 -0.00125 -0.017128125 2.10522989226e-14
206 1 -0.027759375 -0.00125 -0.015946875 2.10725028966e-20
207 1 -0.027759375 -0.00125 -0.014765625 4.96456921688e-23
208 1 -0.027759375 -0.00125 -0.013584375 7.34501575903e-24
209 1 -0.027759375 -0.00125 -0.012403125 1.3217205886e-08
210 1 -0.027759375 -0.00125 -0.011221875 8.22337566388e-08
211 1 -0.027759375 -0.00125 -0.010040625 1.16129745054e-05
212 1 -0.027759375 -0.00125 -0.008859375 1.50779983005e-06
213 1 -0.027759375 -0.00125 -0.007678125 2.69681788614e-06
214 1 -0.027759375 -0.00125 -0.006496875 0.000430611511776
215 1 -0.027759375 -0.00125 -0.005315625 0.00126465771452
216 1 -0.027759375 -0.00125 -0.004134375 0.00297390224718
217 1 -0.027759375 -0.00125 -0.002953125 0.00656321223984
218 1 -0.027759375 -0.00125 -0.001771875 0.000251662589367
219 1 -0.027759375 -0.00125 -0.000590625 0.00165647594643
220 1 -0.027759375 -0.00125 0.000590625 0.00273975167614
221 1 -0.027759375 -0.00125 0.001771875 0.00588650973761
222 1 -0.027759375 -0.00125 0.002953125 0.000857261022068
223 1 -0.027759375 -0.00125 0.004134375 0.000309751657617
224 1 -0.027759375 -0.00125 0.005315625 3.38267850521e-09
225 1 -0.027759375 -0.00125 0.006496875 1.22523806603e-13
226 1 -0.027759375 -0.00125 0.007678125 1.49361132172e-12
227 1 -0.027759375 -0.00125 0.008859375 8.88215262485e-11
228 1 -0.027759375 -0.00125 0.010040625 2.56105819337e-10
229 1 -0.027759375 -0.00125 0.011221875 1.0497440909e-16
230 1 -0.027759375 -0.00125 0.012403125 1.48437147781e-15
231 1 -0.027759375 -0.00125 0.013584375 4.17659587841e-14
232 1 -0.027759375 -0.00125 0.014765625 3.39992866706e-15
233 1 -0.027759375 -0.00125 0.015946875 2.96930022596e-18
234 1 -0.027759375 -0.00125 0.017128125 7.57354663964e-43
235 1 -0.027759375 -0.00125 0.018309375 1.98848023388e-45
236 1 -0.027759375 -0.00125 0.019490625 2.93989349176e-146
237 1 -0.027759375 -0.00125 0.020671875 1.87711497452e-302
238 1 -0.027759375 -0.00125 0.021853125 1.839465526e-170
239 1 -0.027759375 -0.00125 0.023034375 0.0
240 1 -0.027759375 -0.00125 0.024215625 0.0
241 1 -0.026578125 -0.00125 -0.026578125 2.05530332693e-05
242 1 -0.026578125 -0.00125 -0.025396875 0.000160267510638
243 1 -0.026578125 -0.00125 -0.024215625 0.00030809079736
244 1 -0.026578125 -0.00125 -0.023034375 0.0367687444512
245 1 -0.026578125 -0.00125 -0.021853125 0.118641519495
246 1 -0.026578125 -0.00125 -0.020671875 0.0102975238489
247 1 -0.026578125 -0.00125 -0.019490625 0.00127663168741
248 1 -0.026578125 -0.00125 -0.018309375 7.24745552927e-06
249 1 -0.026578125 -0.00125 -0.017128125 1.34378894325e-12
250 1 -0.026578125 -0.00125 -0.015946875 8.21472961876e-22
251 1 -0.026578125 -0.00125 -0.014765625 2.24987885483e-21
252 1 -0.026578125 -0.00125 -0.013584375 5.11399796645e-13
253 1 -0.026578125 -0.00125 -0.012403125 7.76262235925e-07
254 1 -0.026578125 -0.00125 -0.011221875 0.000129101965469
255 1 -0.026578125 -0.00125 -0.010040625 0.00069572517679
256 1 -0.026578125 -0.00125 -0.008859375 0.00234833082411
257 1 -0.026578125 -0.00125 -0.007678125 0.0145474393326
258 1 -0.026578125 -0.00125 -0.006496875 0.0113666490747
259 1 -0.026578125 -0.00125 -0.005315625 0.00238081905353
260 1 -0.026578125 -0.00125 -0.004134375 0.00289872506827
261 1 -0.026578125 -0.00125 -0.002953125 0.00213024665585
262 1 -0.026578125 -0.00125 -0.001771875 0.00524883722771
263 1 -0.026578125 -0.00125 -0.000590625 0.00262269523634
264 1 -0.026578125 -0.00125 0.000590625 0.0134393896801
265 1 -0.026578125 -0.00125 0.001771875 0.0142332766132
266 1 -0.026578125 -0.00125 0.002953125 0.00344397133298
267 1 -0.026578125 -0.00125 0.004134375 0.000725244287605
268 1 -0.026578125 -0.00125 0.005315625 0.000368394194426
269 1 -0.026578125 -0.00125 0.006496875 9.88843017068e-08
270 1 -0.026578125 -0.00125 0.007678125 4.2665771727e-06
271 1 -0.026578125 -0.00125 0.008859375 1.35652052815e-08
272 1 -0.026578125 -0.00125 0.010040625 8.24746800171e-08
273 1 -0.026578125 -0.00125 0.011221875 7.82168138563e-06
274 1 -0.026578125 -0.00125 0.012403125 1.87852127008e-07
275 1 -0.026578125 -0.00125 0.013584375 2.04792310659e-07
276 1 -0.026578125 -0.00125 0.014765625 1.333127033e-07
277 1 -0.026578125 -0.00125 0.015946875 3.56523999238e-14
278 1 -0.026578125 -0.00125 0.017128125 3.25682162728e-19
279 1 -0.026578125 -0.00125 0.018309375 7.64430267137e-22
280 1 -0.026578125 -0.00125 0.019490625 9.01445475191e-51
281 1 -0.026578125 -0.00125 0.020671875 1.15113495742e-228
282 1 -0.026578125 -0.00125 0.021853125 0.0
283 1 -0.026578125 -0.00125 0.023034375 0.0
284 1 -0.026578125 -0.00125 0.024215625 0.0
285 1 -0.026578125 -0.00125 0.025396875 0.0
286 1 -0.026578125 -0.00125 0.026578125 0.0
287 1 -0.025396875 -0.00125 -0.026578125 5.42982896603e-07
288 1 -0.025396875 -0.00125 -0.025396875 2.78832946465e-06
289 1 -0.025396875 -0.00125 -0.024215625 0.000379344724986
290 1 -0.025396875 -0.00125 -0.023034375 0.0248730474509
291 1 -0.025396875 -0.00125 -0.021853125 0.01769964918
292 1 -0.025396875 -0.00125 -0.020671875 0.00990474235379
293 1 -0.025396875 -0.00125 -0.019490625 6.0018892518e-05
294 1 -0.025396875 -0.00125 -0.018309375 7.11163633634e-07
295 1 -0.025396875 -0.00125 -0.017128125 5.42984908321e-13
296 1 -0.025396875 -0.00125 -0.015946875 1.14741960051e-10
297 1 -0.025396875 -0.00125 -0.014765625 1.14653737237e-10
298 1 -0.025396875 -0.00125 -0.013584375 3.94448246331e-09
299 1 -0.025396875 -0.00125 -0.012403125 0.00225112112923
300 1 -0.025396875 -0.00125 -0.011221875 0.00524525920039
301 1 -0.025396875 -0.00125 -0.010040625 0.0606301510216
302 1 -0.025396875 -0.00125 -0.008859375 0.0262858717379
303 1 -0.025396875 -0.00125 -0.007678125 0.0402698441043
304 1 -0.025396875 -0.00125 -0.006496875 0.00456523440349
305 1 -0.025396875 -0.00125 -0.005315625 0.00120323642262
306 1 -0.025396875 -0.00125 -0.004134375 0.00199474319436
307 1 -0.025396875 -0.00125 -0.002953125 0.00267264377543
308 1 -0.025396875 -0.00125 -0.001771875 0.0070989561671
309 1 -0.025396875 -0.00125 -0.000590625 0.00221073906402
310 1 -0.025396875 -0.00125 0.000590625 0.0218756821999
311 1 -0.025396875 -0.00125 0.001771875 0.0168122240919
312 1 -0.025396875 -0.00125 0.002953125 0.00431374738385
313 1 -0.025396875 -0.00125 0.004134375 0.00180555923849
314 1 -0.025396875 -0.00125 0.005315625 0.00257491363312
315 1 -0.025396875 -0.00125 0.006496875 0.000919885026708
316 1 -0.025396875 -0.00125 0.007678125 0.00106696644849
317 1 -0.025396875 -0.00125 0.008859375 0.000365438702033
318 1 -0.025396875 -0.00125 0.010040625 0.00111178802981
319 1 -0.025396875 -0.00125 0.011221875 0.00115562409581
320 1 -0.025396875 -0.00125 0.012403125 0.000631861357698
321 1 -0.025396875 -0.00125 0.013584375 0.000431607267267
322 1 -0.025396875 -0.00125 0.014765625 5.10583431437e-08
323 1 -0.025396875 -0.00125 0.015946875 3.53193386384e-12
324 1 -0.025396875 -0.00125 0.017128125 6.71584460756e-12
325 1 -0.025396875 -0.00125 0.018309375 7.74477661638e-16
326 1 -0.025396875 -0.00125 0.019490625 3.59974316451e-36
327 1 -0.025396875 -0.00125 0.020671875 6.84154798262e-71
328 1 -0.025396875 -0.00125 0.021853125 0.0
329 1 -0.025396875 -0.00125 0.023034375 0.0
330 1 -0.025396875 -0.00125 0.024215625 0.0
331 1 -0.025396875 -0.00125 0.025396875 0.0
332 1 -0.025396875 -0.00125 0.026578125 0.0
333 1 -0.024215625 -0.00125 -0.027759375 4.21934519651e-07
334 1 -0.024215625 -0.00125 -0.026578125 8.29110474684e-06
335 1 -0.024215625 -0.00125 -0.025396875 5.6126138004e-05
336 1 -0.024215625 -0.00125 -0.024215625 0.000803990375686
337 1 -0.024215625 -0.00125 -0.023034375 0.000531336466809
338 1 -0.024215625 -0.00125 -0.021853125 0.00151892707748
339 1 -0.024215625 -0.00125 -0.020671875 0.00128533654907
340 1 -0.024215625 -0.00125 -0.019490625 1.61250551294e-05
341 1 -0.024215625 -0.00125 -0.018309375 1.36284882801e-08
342 1 -0.024215625 -0.00125 -0.017128125 2.10905088049e-09
343 1 -0.024215625 -0.00125 -0.015946875 1.95615489139e-07
344 1 -0.024215625 -0.00125 -0.014765625 3.39039206321e-06
345 1 -0.024215625 -0.00125 -0.013584375 0.000973549124033
346 1 -0.024215625 -0.00125 -0.012403125 0.0733408504855
347 1 -0.024215625 -0.00125 -0.011221875 0.0776075777961
348 1 -0.024215625 -0.00125 -0.010040625 0.0937517478783
349 1 -0.024215625 -0.00125 -0.008859375 0.0338552600297
350 1 -0.024215625 -0.00125 -0.007678125 0.0197363973108
351 1 -0.024215625 -0.00125 -0.006496875 0.0065599688352
352 1 -0.024215625 -0.00125 -0.005315625 0.000407617497448
353 1 -0.024215625 -0.00125 -0.004134375 0.00535929527738
354 1 -0.024215625 -0.00125 -0.002953125 0.00294311531484
355 1 -0.024215625 -0.00125 -0.001771875 0.00658529090013
356 1 -0.024215625 -0.00125 -0.000590625 0.00751037892742
357 1 -0.024215625 -0.00125 0.000590625 0.0104134372327
358 1 -0.024215625 -0.00125 0.001771875 0.0154428678601
359 1 -0.024215625 -0.00125 0.002953125 0.0127577908717
360 1 -0.024215625 -0.00125 0.004134375 0.00425646488772
361 1 -0.024215625 -0.00125 0.005315625 0.00462669233928
362 1 -0.024215625 -0.00125 0.006496875 0.00209246500526
363 1 -0.024215625 -0.00125 0.007678125 0.00435816443961
364 1 -0.024215625 -0.00125 0.008859375 0.00164177881885
365 1 -0.024215625 -0.00125 0.010040625 0.00317297106302
366 1 -0.024215625 -0.00125 0.011221875 0.000851522384937
367 1 -0.024215625 -0.00125 0.012403125 0.00531872222826
368 1 -0.024215625 -0.00125 0.013584375 0.000457538740828
369 1 -0.024215625 -0.00125 0.014765625 4.92401864767e-06
370 1 -0.024215625 -0.00125 0.015946875 6.45942045432e-08
371 1 -0.024215625 -0.00125 0.017128125 9.02628992751e-11
372 1 -0.024215625 -0.00125 0.018309375 6.74598469591e-15
373 1 -0.024215625 -0.00125 0.019490625 7.21532453266e-46
374 1 -0.024215625 -0.00125 0.020671875 2.59175618606e-94
375 1 -0.024215625 -0.00125 0.021853125 9.01131447921e-188
376 1 -0.024215625 -0.00125 0.023034375 0.0
377 1 -0.024215625 -0.00125 0.024215625 0.0
378 1 -0.024215625 -0.00125 0.025396875 0.0
379 1 -0.024215625 -0.00125 0.026578125 0.0
380 1 -0.024215625 -0.00125 0.027759375 0.0
381 1 -0.023034375 -0.00125 -0.027759375 0.00014150528855
382 1 -0.023034375 -0.00125 -0.026578125 0.0127688104729
383 1 -0.023034375 -0.00125 -0.025396875 0.00320755439005
384 1 -0.023034375 -0.00125 -0.024215625 0.00212137682412
385 1 -0.023034375 -0.00125 -0.023034375 0.00547971269635
386 1 -0.023034375 -0.00125 -0.021853125 0.00116117683131
387 1 -0.023034375 -0.00125 -0.020671875 0.000673203021941
388 1 -0.023034375 -0.00125 -0.019490625 3.17546068759e-05
389 1 -0.023034375 -0.00125 -0.018309375 4.41578093797e-05
390 1 -0.023034375 -0.00125 -0.017128125 0.000610689103543
391 1 -0.023034375 -0.00125 -0.015946875 0.00136851324962
392 1 -0.023034375 -0.00125 -0.014765625 0.00338994681434
393 1 -0.023034375 -0.00125 -0.013584375 0.0389772640897
394 1 -0.023034375 -0.00125 -0.012403125 0.071474228101
395 1 -0.023034375 -0.00125 -0.011221875 0.0764371097879
396 1 -0.023034375 -0.00125 -0.010040625 0.0359810169078
397 1 -0.023034375 -0.00125 -0.008859375 0.0362686050231
398 1 -0.023034375 -0.00125 -0.007678125 0.0191837525803
399 1 -0.023034375 -0.00125 -0.006496875 0.00614304826338
400 1 -0.023034375 -0.00125 -0.005315625 0.00338840976011
401 1 -0.023034375 -0.00125 -0.004134375 0.00506000712459
402 1 -0.023034375 -0.00125 -0.002953125 0.00688014745377
403 1 -0.023034375 -0.00125 -0.001771875 0.00901566136365
404 1 -0.023034375 -0.00125 -0.000590625 0.0106300387755
405 1 -0.023034375 -0.00125 0.000590625 0.0235670947844
406 1 -0.023034375 -0.00125 0.001771875 0.0273821117749
407 1 -0.023034375 -0.00125 0.002953125 0.0205233084709
408 1 -0.023034375 -0.00125 0.004134375 0.00596774123923
409 1 -0.023034375 -0.00125 0.005315625 0.00147765296107
410 1 -0.023034375 -0.00125 0.006496875 0.0111844380785
411 1 -0.023034375 -0.00125 0.007678125 0.00560875484683
412 1 -0.023034375 -0.00125 0.008859375 0.01157139365
413 1 -0.023034375 -0.00125 0.010040625 0.017033906665
414 1 -0.023034375 -0.00125 0.011221875 0.0150138202624
415 1 -0.023034375 -0.00125 0.012403125 0.00645285909696
416 1 -0.023034375 -0.00125 0.013584375 0.00240162169861
417 1 -0.023034375 -0.00125 0.014765625 0.000175593383908
418 1 -0.023034375 -0.00125 0.015946875 8.00428276285e-06
419 1 -0.023034375 -0.00125 0.017128125 1.14232233338e-11
420 1 -0.023034375 -0.00125 0.018309375 3.05959025435e-12
421 1 -0.023034375 -0.00125 0.019490625 3.89163408393e-15
422 1 -0.023034375 -0.00125 0.020671875 2.33195434568e-28
423 1 -0.023034375 -0.00125 0.021853125 1.60015355373e-209
424 1 -0.023034375 -0.00125 0.023034375 0.0
425 1 -0.023034375 -0.00125 0.024215625 0.0
426 1 -0.023034375 -0.00125 0.025396875 0.0
427 1 -0.023034375 -0.00125 0.026578125 0.0
428 1 -0.023034375 -0.00125 0.027759375 5.67800277985e-100
429 1 -0.021853125 -0.00125 -0.028940625 0.000798032234077
430 1 -0.021853125 -0.00125 -0.027759375 0.0265454625983
431 1 -0.021853125 -0.00125 -0.026578125 0.0118324872374
432 1 -0.021853125 -0.00125 -0.025396875 0.0113573563116
433 1 -0.021853125 -0.00125 -0.024215625 0.00940921535562
434 1 -0.021853125 -0.00125 -0.023034375 0.00927063622772
435 1 -0.021853125 -0.00125 -0.021853125 0.00485481857299
436 1 -0.021853125 -0.00125 -0.020671875 0.00119039657134
437 1 -0.021853125 -0.00125 -0.019490625 0.00103032739194
438 1 -0.021853125 -0.00125 -0.018309375 0.00181052509068
439 1 -0.021853125 -0.00125 -0.017128125 0.0088943931767
440 1 -0.021853125 -0.00125 -0.015946875 0.0121517912201
441 1 -0.021853125 -0.00125 -0.014765625 0.0501765936158
442 1 -0.021853125 -0.00125 -0.013584375 0.069610263713
443 1 -0.021853125 -0.00125 -0.012403125 0.0421594730803
444 1 -0.021853125 -0.00125 -0.011221875 0.0412199771639
445 1 -0.021853125 -0.00125 -0.010040625 0.018562599626
446 1 -0.021853125 -0.00125 -0.008859375 0.0191408516979
447 1 -0.021853125 -0.00125 -0.007678125 0.0346668876229
448 1 -0.021853125 -0.00125 -0.006496875 0.0136526006309
449 1 -0.021853125 -0.00125 -0.005315625 0.0043107187249
450 1 -0.021853125 -0.00125 -0.004134375 0.00574524702979
451 1 -0.021853125 -0.00125 -0.002953125 0.00385685780331
452 1 -0.021853125 -0.00125 -0.001771875 0.00724061409912
453 1 -0.021853125 -0.00125 -0.000590625 0.0194064930696
454 1 -0.021853125 -0.00125 0.000590625 0.0252692857714
455 1 -0.021853125 -0.00125 0.001771875 0.0237866492847
456 1 -0.021853125 -0.00125 0.002953125 0.0225616454191
457 1 -0.021853125 -0.00125 0.004134375 0.029280037919
458 1 -0.021853125 -0.00125 0.005315625 0.0325082839
459 1 -0.021853125 -0.00125 0.006496875 0.0257235805881
460 1 -0.021853125 -0.00125 0.007678125 0.015006445114
461 1 -0.021853125 -0.00125 0.008859375 0.0436868349169
462 1 -0.021853125 -0.00125 0.010040625 0.0299987361399
463 1 -0.021853125 -0.00125 0.011221875 0.0222986224377
464 1 -0.021853125 -0.00125 0.012403125 0.0151313804945
465 1 -0.021853125 -0.00125 0.013584375 0.00949770478323
466 1 -0.021853125 -0.00125 0.014765625 0.00185829563671
467 1 -0.021853125 -0.00125 0.015946875 8.18242421913e-05
468 1 -0.021853125 -0.00125 0.017128125 3.17402790286e-07
469 1 -0.021853125 -0.00125 0.018309375 1.7389295011e-11
470 1 -0.021853125 -0.00125 0.019490625 4.47888641384e-11
471 1 -0.021853125 -0.00125 0.020671875 1.38987369201e-26
472 1 -0.021853125 -0.00125 0.021853125 1.33321045758e-47
473 1 -0.021853125 -0.00125 0.023034375 2.01360448264e-97
474 1 -0.021853125 -0.00125 0.024215625 1.9707997922e-157
475 1 -0.021853125 -0.00125 0.025396875 4.88778222279e-190
476 1 -0.021853125 -0.00125 0.026578125 4.3921788104e-105
477 1 -0.021853125 -0.00125 0.027759375 4.9900224442e-70
478 1 -0.021853125 -0.00125 0.028940625 9.85960980426e-66
479 1 -0.020671875 -0.00125 -0.030121875 0.000849149846589
480 1 -0.020671875 -0.00125 -0.028940625 0.00291845997985
481 1 -0.020671875 -0.00125 -0.027759375 0.0363677976811
482 1 -0.020671875 -0.00125 -0.026578125 0.0241649628781
483 1 -0.020671875 -0.00125 -0.025396875 0.0183373364095
484 1 -0.020671875 -0.00125 -0.024215625 0.0193757051238
485 1 -0.020671875 -0.00125 -0.023034375 0.0176928092084
486 1 -0.020671875 -0.00125 -0.021853125 0.0291511730548
487 1 -0.020671875 -0.00125 -0.020671875 0.00692789790284
488 1 -0.020671875 -0.00125 -0.019490625 0.0124112371632
489 1 -0.020671875 -0.00125 -0.018309375 0.0386062778315
490 1 -0.020671875 -0.00125 -0.017128125 0.0372703955878
491 1 -0.020671875 -0.00125 -0.015946875 0.0452454991895
492 1 -0.020671875 -0.00125 -0.014765625 0.0525213144876
493 1 -0.020671875 -0.00125 -0.013584375 0.0848632340766
494 1 -0.020671875 -0.00125 -0.012403125 0.0840000259048
495 1 -0.020671875 -0.00125 -0.011221875 0.00162969899825
496 1 -0.020671875 -0.00125 -0.010040625 0.00683992480166
497 1 -0.020671875 -0.00125 -0.008859375 0.00619800136633
498 1 -0.020671875 -0.00125 -0.007678125 0.0061573845618
499 1 -0.020671875 -0.00125 -0.006496875 0.0140656113947
500 1 -0.020671875 -0.00125 -0.005315625 0.0107939151344
501 1 -0.020671875 -0.00125 -0.004134375 0.00554283962127
502 1 -0.020671875 -0.00125 -0.002953125 0.00541633517009
503 1 -0.020671875 -0.00125 -0.001771875 0.0256973521938
504 1 -0.020671875 -0.00125 -0.000590625 0.0259155088522
505 1 -0.020671875 -0.00125 0.000590625 0.0580969355996
506 1 -0.020671875 -0.00125 0.001771875 0.066381810254
507 1 -0.020671875 -0.00125 0.002953125 0.0866017677167
508 1 -0.020671875 -0.00125 0.004134375 0.0548050133719
509 1 -0.020671875 -0.00125 0.005315625 0.0323242187637
510 1 -0.020671875 -0.00125 0.006496875 0.0161204421995
511 1 -0.020671875 -0.00125 0.007678125 0.0230374479762
512 1 -0.020671875 -0.00125 0.008859375 0.072469323509
513 1 -0.020671875 -0.00125 0.010040625 0.0465938462304
514 1 -0.020671875 -0.00125 0.011221875 0.0413987007085
515 1 -0.020671875 -0.00125 0.012403125 0.0563482821632
516 1 -0.020671875 -0.00125 0.013584375 0.0118562833129
517 1 -0.020671875 -0.00125 0.014765625 0.0102723495131
518 1 -0.020671875 -0.00125 0.015946875 0.00259921587561
519 1 -0.020671875 -0.00125 0.017128125 3.66044534933e-06
520 1 -0.020671875 -0.00125 0.018309375 1.04591742492e-06
521 1 -0.020671875 -0.00125 0.019490625 2.44395459666e-07