ITEM: TIMESTEP
0
ITEM: NUMBER OF ATOMS
3080
ITEM: BOX BOUNDS ss ss ss
-3.7007399999999996e-02 3.7007399999999996e-02
-2.0002499999999999e-03 2.5000000000000004e-07
-3.7007399999999996e-02 3.7007399999999996e-02
ITEM: ATOMS id type x y z c_1
0 1 -0.037209375 -0.00125 -0.000590625 8.30163625797e-27
1 1 -0.036028125 -0.00125 -0.007678125 0.0
2 1 -0.036028125 -0.00125 -0.006496875 0.0
3 1 -0.036028125 -0.00125 -0.005315625 0.0
4 1 -0.036028125 -0.00125 -0.004134375 0.0
5 1 -0.036028125 -0.00125 -0.002953125 0.0
6 1 -0.036028125 -0.00125 -0.001771875 0.0
7 1 -0.036028125 -0.00125 -0.000590625 3.82296538138e-253
8 1 -0.036028125 -0.00125 0.000590625 1.75612198038e-183
9 1 -0.036028125 -0.00125 0.001771875 1.84234873072e-116
10 1 -0.036028125 -0.00125 0.002953125 2.18229644536e-306
11 1 -0.036028125 -0.00125 0.004134375 0.0
12 1 -0.036028125 -0.00125 0.005315625 0.0
13 1 -0.036028125 -0.00125 0.006496875 4.138997655e-241
14 1 -0.036028125 -0.00125 0.007678125 1.76258662972e-141
15 1 -0.034846875 -0.00125 -0.011221875 0.0
16 1 -0.034846875 -0.00125 -0.010040625 0.0
17 1 -0.034846875 -0.00125 -0.008859375 0.0
18 1 -0.034846875 -0.00125 -0.007678125 0.0
19 1 -0.034846875 -0.00125 -0.006496875 0.0
20 1 -0.034846875 -0.00125 -0.005315625 0.0
21 1 -0.034846875 -0.00125 -0.004134375 0.0
22 1 -0.034846875 -0.00125 -0.002953125 0.0
23 1 -0.034846875 -0.00125 -0.001771875 0.0
24 1 -0.034846875 -0.00125 -0.000590625 0.0
25 1 -0.034846875 -0.00125 0.000590625 0.0
26 1 -0.034846875 -0.00125 0.001771875 0.0
27 1 -0.034846875 -0.00125 0.002953125 0.0
28 1 -0.034846875 -0.00125 0.004134375 0.0
29 1 -0.034846875 -0.00125 0.005315625 0.0
30 1 -0.034846875 -0.00125 0.006496875 0.0
31 1 -0.034846875 -0.00125 0.007678125 4.09590759518e-218
32 1 -0.034846875 -0.00125 0.008859375 1.39334859616e-26
33 1 -0.034846875 -0.00125 0.010040625 5.20246238464e-104
34 1 -0.034846875 -0.00125 0.011221875 9.20108818405e-25
35 1 -0.033665625 -0.00125 -0.013584375 0.0
36 1 -0.033665625 -0.00125 -0.012403125 4.23506685967e-130
37 1 -0.033665625 -0.00125 -0.011221875 0.0
38 1 -0.033665625 -0.00125 -0.010040625 0.0
39 1 -0.033665625 -0.00125 -0.008859375 0.0
40 1 -0.033665625 -0.00125 -0.007678125 0.0
41 1 -0.033665625 -0.00125 -0.006496875 0.0
42 1 -0.033665625 -0.00125 -0.005315625 0.0
43 1 -0.033665625 -0.00125 -0.004134375 0.0
44 1 -0.033665625 -0.00125 -0.002953125 0.0
45 1 -0.033665625 -0.00125 -0.001771875 0.0
46 1 -0.033665625 -0.00125 -0.000590625 1.32624417055e-261
47 1 -0.033665625 -0.00125 0.000590625 4.11194505432e-194
48 1 -0.033665625 -0.00125 0.001771875 0.0
49 1 -0.033665625 -0.00125 0.002953125 0.0
50 1 -0.033665625 -0.00125 0.004134375 0.0
51 1 -0.033665625 -0.00125 0.005315625 0.0
52 1 -0.033665625 -0.00125 0.006496875 0.0
53 1 -0.033665625 -0.00125 0.007678125 5.46925056492e-114
54 1 -0.033665625 -0.00125 0.008859375 2.48018175062e-47
55 1 -0.033665625 -0.00125 0.010040625 1.78556830883e-43
56 1 -0.033665625 -0.00125 0.011221875 5.86887366151e-15
57 1 -0.033665625 -0.00125 0.012403125 1.42659953136e-07
58 1 -0.033665625 -0.00125 0.013584375 2.17469384632e-97
59 1 -0.032484375 -0.00125 -0.018309375 0.0
60 1 -0.032484375 -0.00125 -0.017128125 0.0
61 1 -0.032484375 -0.00125 -0.015946875 2.3591341024e-108
62 1 -0.032484375 -0.00125 -0.014765625 2.71076692005e-145
63 1 -0.032484375 -0.00125 -0.013584375 1.27274559796e-190
64 1 -0.032484375 -0.00125 -0.012403125 1.54008586892e-171
65 1 -0.032484375 -0.00125 -0.011221875 1.28483469082e-292
66 1 -0.032484375 -0.00125 -0.010040625 0.0
67 1 -0.032484375 -0.00125 -0.008859375 0.0
68 1 -0.032484375 -0.00125 -0.007678125 0.0
69 1 -0.032484375 -0.00125 -0.006496875 0.0
70 1 -0.032484375 -0.00125 -0.005315625 0.0
71 1 -0.032484375 -0.00125 -0.004134375 0.0
72 1 -0.032484375 -0.00125 -0.002953125 0.0
73 1 -0.032484375 -0.00125 -0.001771875 2.16293678303e-263
74 1 -0.032484375 -0.00125 -0.000590625 1.00930553783e-233
75 1 -0.032484375 -0.00125 0.000590625 2.99557300844e-157
76 1 -0.032484375 -0.00125 0.001771875 7.47725336534e-161
77 1 -0.032484375 -0.00125 0.002953125 5.82914507958e-184
78 1 -0.032484375 -0.00125 0.004134375 0.0
79 1 -0.032484375 -0.00125 0.005315625 3.53701554163e-291
80 1 -0.032484375 -0.00125 0.006496875 2.06317313918e-137
81 1 -0.032484375 -0.00125 0.007678125 8.07952389636e-85
82 1 -0.032484375 -0.00125 0.008859375 1.70533664887e-91
83 1 -0.032484375 -0.00125 0.010040625 3.68130088666e-53
84 1 -0.032484375 -0.00125 0.011221875 4.41742920141e-18
85 1 -0.032484375 -0.00125 0.012403125 5.10406198923e-27
86 1 -0.032484375 -0.00125 0.013584375 0.0
87 1 -0.032484375 -0.00125 0.014765625 6.90808150215e-46
88 1 -0.032484375 -0.00125 0.015946875 1.60773103035e-60
89 1 -0.032484375 -0.00125 0.017128125 6.86502639918e-28
90 1 -0.032484375 -0.00125 0.018309375 7.62874562434e-22
91 1 -0.031303125 -0.00125 -0.019490625 0.0
92 1 -0.031303125 -0.00125 -0.018309375 0.0
93 1 -0.031303125 -0.00125 -0.017128125 0.0
94 1 -0.031303125 -0.00125 -0.015946875 2.3914304665e-274
95 1 -0.031303125 -0.00125 -0.014765625 1.14222946249e-103
96 1 -0.031303125 -0.00125 -0.013584375 4.10641907138e-166
97 1 -0.031303125 -0.00125 -0.012403125 9.16951653546e-185
98 1 -0.031303125 -0.00125 -0.011221875 2.75961518757e-280
99 1 -0.031303125 -0.00125 -0.010040625 0.0
100 1 -0.031303125 -0.00125 -0.008859375 0.0
101 1 -0.031303125 -0.00125 -0.007678125 1.48855350707e-227
102 1 -0.031303125 -0.00125 -0.006496875 0.0
103 1 -0.031303125 -0.00125 -0.005315625 0.0
104 1 -0.031303125 -0.00125 -0.004134375 0.0
105 1 -0.031303125 -0.00125 -0.002953125 2.20989771898e-203
106 1 -0.031303125 -0.00125 -0.001771875 5.0674527606e-103
107 1 -0.031303125 -0.00125 -0.000590625 1.20490507228e-151
108 1 -0.031303125 -0.00125 0.000590625 2.92516331635e-166
109 1 -0.031303125 -0.00125 0.001771875 6.7852108662e-153
110 1 -0.031303125 -0.00125 0.002953125 5.84327006703e-162
111 1 -0.031303125 -0.00125 0.004134375 1.04077195443e-179
112 1 -0.031303125 -0.00125 0.005315625 1.97572592864e-71
113 1 -0.031303125 -0.00125 0.006496875 6.20512557155e-54
114 1 -0.031303125 -0.00125 0.007678125 2.82653743135e-72
115 1 -0.031303125 -0.00125 0.008859375 1.67814235408e-151
116 1 -0.031303125 -0.00125 0.010040625 1.15400068242e-124
117 1 -0.031303125 -0.00125 0.011221875 5.55989948705e-61
118 1 -0.031303125 -0.00125 0.012403125 1.67013919677e-58
119 1 -0.031303125 -0.00125 0.013584375 2.77900155068e-98
120 1 -0.031303125 -0.00125 0.014765625 1.39772132612e-135
121 1 -0.031303125 -0.00125 0.015946875 2.02326333263e-101
122 1 -0.031303125 -0.00125 0.017128125 8.22691569508e-63
123 1 -0.031303125 -0.00125 0.018309375 2.66585379687e-36
124 1 -0.031303125 -0.00125 0.019490625 2.91424144356e-71
125 1 -0.030121875 -0.00125 -0.020671875 0.0
126 1 -0.030121875 -0.00125 -0.019490625 0.0
127 1 -0.030121875 -0.00125 -0.018309375 0.0
128 1 -0.030121875 -0.00125 -0.017128125 3.84519514364e-134
129 1 -0.030121875 -0.00125 -0.015946875 0.0
130 1 -0.030121875 -0.00125 -0.014765625 4.30210497377e-81
131 1 -0.030121875 -0.00125 -0.013584375 3.34467190798e-90
132 1 -0.030121875 -0.00125 -0.012403125 3.41370232029e-62
133 1 -0.030121875 -0.00125 -0.011221875 1.08286843551e-120
134 1 -0.030121875 -0.00125 -0.010040625 0.0
135 1 -0.030121875 -0.00125 -0.008859375 3.10480465497e-287
136 1 -0.030121875 -0.00125 -0.007678125 2.81050278904e-187
137 1 -0.030121875 -0.00125 -0.006496875 1.48621627929e-287
138 1 -0.030121875 -0.00125 -0.005315625 3.19639185492e-155
139 1 -0.030121875 -0.00125 -0.004134375 1.25600122455e-128
140 1 -0.030121875 -0.00125 -0.002953125 1.41297821019e-59
141 1 -0.030121875 -0.00125 -0.001771875 5.67419681899e-55
142 1 -0.030121875 -0.00125 -0.000590625 7.81125980515e-131
143 1 -0.030121875 -0.00125 0.000590625 8.41482386615e-113
144 1 -0.030121875 -0.00125 0.001771875 2.08212860337e-72
145 1 -0.030121875 -0.00125 0.002953125 1.42777387251e-92
146 1 -0.030121875 -0.00125 0.004134375 1.84515056924e-122
147 1 -0.030121875 -0.00125 0.005315625 3.49609347795e-53
148 1 -0.030121875 -0.00125 0.006496875 2.42813625057e-58
149 1 -0.030121875 -0.00125 0.007678125 1.28411067756e-54
150 1 -0.030121875 -0.00125 0.008859375 8.60266028648e-151
151 1 -0.030121875 -0.00125 0.010040625 3.07245487653e-54
152 1 -0.030121875 -0.00125 0.011221875 1.26429111289e-80
153 1 -0.030121875 -0.00125 0.012403125 1.73647627507e-90
154 1 -0.030121875 -0.00125 0.013584375 3.94217276256e-83
155 1 -0.030121875 -0.00125 0.014765625 8.46641646374e-262
156 1 -0.030121875 -0.00125 0.015946875 3.6927990804e-213
157 1 -0.030121875 -0.00125 0.017128125 9.06630076658e-93
158 1 -0.030121875 -0.00125 0.018309375 9.21806544923e-68
159 1 -0.030121875 -0.00125 0.019490625 3.29533000574e-82
160 1 -0.030121875 -0.00125 0.020671875 3.68568898877e-89
161 1 -0.028940625 -0.00125 -0.021853125 0.0
162 1 -0.028940625 -0.00125 -0.020671875 0.0
163 1 -0.028940625 -0.00125 -0.019490625 0.0
164 1 -0.028940625 -0.00125 -0.018309375 0.0
165 1 -0.028940625 -0.00125 -0.017128125 4.4343714173e-252
166 1 -0.028940625 -0.00125 -0.015946875 7.42079092559e-142
167 1 -0.028940625 -0.00125 -0.014765625 3.00437161682e-115
168 1 -0.028940625 -0.00125 -0.013584375 6.54839685608e-90
169 1 -0.028940625 -0.00125 -0.012403125 1.04997712075e-96
170 1 -0.028940625 -0.00125 -0.011221875 2.68490445502e-127
171 1 -0.028940625 -0.00125 -0.010040625 1.86628805298e-134
172 1 -0.028940625 -0.00125 -0.008859375 2.13865109749e-114
173 1 -0.028940625 -0.00125 -0.007678125 2.81672311807e-68
174 1 -0.028940625 -0.00125 -0.006496875 4.62162709711e-43
175 1 -0.028940625 -0.00125 -0.005315625 3.13080788083e-53
176 1 -0.028940625 -0.00125 -0.004134375 2.66986701002e-60
177 1 -0.028940625 -0.00125 -0.002953125 4.51495183024e-80
178 1 -0.028940625 -0.00125 -0.001771875 9.43265570061e-107
179 1 -0.028940625 -0.00125 -0.000590625 7.23474643259e-42
180 1 -0.028940625 -0.00125 0.000590625 1.79475981531e-84
181 1 -0.028940625 -0.00125 0.001771875 2.52958883002e-77
182 1 -0.028940625 -0.00125 0.002953125 1.06727341046e-68
183 1 -0.028940625 -0.00125 0.004134375 6.80470733868e-95
184 1 -0.028940625 -0.00125 0.005315625 4.33421240521e-70
185 1 -0.028940625 -0.00125 0.006496875 4.1020931354e-71
186 1 -0.028940625 -0.00125 0.007678125 9.90573516901e-98
187 1 -0.028940625 -0.00125 0.008859375 2.1097589136e-82
188 1 -0.028940625 -0.00125 0.010040625 2.92194000855e-108
189 1 -0.028940625 -0.00125 0.011221875 2.52676324227e-80
190 1 -0.028940625 -0.00125 0.012403125 5.24449161042e-156
191 1 -0.028940625 -0.00125 0.013584375 1.47037260584e-289
192 1 -0.028940625 -0.00125 0.014765625 0.0
193 1 -0.028940625 -0.00125 0.015946875 1.35868529364e-147
194 1 -0.028940625 -0.00125 0.017128125 4.40298546455e-88
195 1 -0.028940625 -0.00125 0.018309375 3.63053703114e-81
196 1 -0.028940625 -0.00125 0.019490625 1.85102823527e-81
197 1 -0.028940625 -0.00125 0.020671875 5.93812098836e-48
198 1 -0.028940625 -0.00125 0.021853125 1.27158616198e-28
199 1 -0.027759375 -0.00125 -0.024215625 0.0
200 1 -0.027759375 -0.00125 -0.023034375 0.0
201 1 -0.027759375 -0.00125 -0.021853125 0.0
202 1 -0.027759375 -0.00125 -0.020671875 0.0
203 1 -0.027759375 -0.00125 -0.019490625 0.0
204 1 -0.027759375 -0.00125 -0.018309375 0.0
205 1 -0.027759375 -0.00125 -0.017128125 1.2750071577e-108
206 1 -0.027759375 -0.00125 -0.015946875 1.54772517106e-78
207 1 -0.027759375 -0.00125 -0.014765625 1.57926997557e-44
208 1 -0.027759375 -0.00125 -0.013584375 4.9648730898e-52
209 1 -0.027759375 -0.00125 -0.012403125 6.09688672496e-38
210 1 -0.027759375 -0.00125 -0.011221875 9.87082729049e-72
211 1 -0.027759375 -0.00125 -0.010040625 3.11996309016e-92
212 1 -0.027759375 -0.00125 -0.008859375 8.51612858816e-72
213 1 -0.027759375 -0.00125 -0.007678125 2.56808773201e-46
214 1 -0.027759375 -0.00125 -0.006496875 7.9939333772e-30
215 1 -0.027759375 -0.00125 -0.005315625 6.44877420493e-26
216 1 -0.027759375 -0.00125 -0.004134375 9.0560294917e-35
217 1 -0.027759375 -0.00125 -0.002953125 1.05853961001e-31
218 1 -0.027759375 -0.00125 -0.001771875 2.08212860337e-72
219 1 -0.027759375 -0.00125 -0.000590625 1.38012918251e-17
220 1 -0.027759375 -0.00125 0.000590625 1.24217372234e-18
221 1 -0.027759375 -0.00125 0.001771875 2.17452310711e-20
222 1 -0.027759375 -0.00125 0.002953125 4.17886982116e-21
223 1 -0.027759375 -0.00125 0.004134375 1.24973799471e-29
224 1 -0.027759375 -0.00125 0.005315625 5.48555016541e-20
225 1 -0.027759375 -0.00125 0.006496875 3.45229553892e-41
226 1 -0.027759375 -0.00125 0.007678125 1.12522423518e-43
227 1 -0.027759375 -0.00125 0.008859375 1.63311666815e-16
228 1 -0.027759375 -0.00125 0.010040625 5.93755278697e-19
229 1 -0.027759375 -0.00125 0.011221875 1.03184506399e-98
230 1 -0.027759375 -0.00125 0.012403125 2.73797782285e-143
231 1 -0.027759375 -0.00125 0.013584375 0.0
232 1 -0.027759375 -0.00125 0.014765625 0.0
233 1 -0.027759375 -0.00125 0.015946875 1.42795476382e-256
234 1 -0.027759375 -0.00125 0.017128125 0.0
235 1 -0.027759375 -0.00125 0.018309375 2.90433841994e-101
236 1 -0.027759375 -0.00125 0.019490625 1.09652660544e-52
237 1 -0.027759375 -0.00125 0.020671875 6.56784921468e-39
238 1 -0.027759375 -0.00125 0.021853125 4.93453525775e-08
239 1 -0.027759375 -0.00125 0.023034375 1.79026012766e-18
240 1 -0.027759375 -0.00125 0.024215625 1.09164348919e-125
241 1 -0.026578125 -0.00125 -0.026578125 0.0
242 1 -0.026578125 -0.00125 -0.025396875 0.0
243 1 -0.026578125 -0.00125 -0.024215625 0.0
244 1 -0.026578125 -0.00125 -0.023034375 0.0
245 1 -0.026578125 -0.00125 -0.021853125 0.0
246 1 -0.026578125 -0.00125 -0.020671875 0.0
247 1 -0.026578125 -0.00125 -0.019490625 3.49914309555e-145
248 1 -0.026578125 -0.00125 -0.018309375 1.42479117029e-113
249 1 -0.026578125 -0.00125 -0.017128125 4.17468405606e-81
250 1 -0.026578125 -0.00125 -0.015946875 7.6366615441e-35
251 1 -0.026578125 -0.00125 -0.014765625 8.58497323134e-32
252 1 -0.026578125 -0.00125 -0.013584375 2.31184196576e-28
253 1 -0.026578125 -0.00125 -0.012403125 1.30083352052e-34
254 1 -0.026578125 -0.00125 -0.011221875 8.57014436009e-27
255 1 -0.026578125 -0.00125 -0.010040625 1.4639258989e-72
256 1 -0.026578125 -0.00125 -0.008859375 3.50476912504e-54
257 1 -0.026578125 -0.00125 -0.007678125 2.78011921476e-18
258 1 -0.026578125 -0.00125 -0.006496875 3.47487440464e-18
259 1 -0.026578125 -0.00125 -0.005315625 4.9548369638e-12
260 1 -0.026578125 -0.00125 -0.004134375 1.13421820301e-13
261 1 -0.026578125 -0.00125 -0.002953125 2.15182087877e-17
262 1 -0.026578125 -0.00125 -0.001771875 1.21802651011e-12
263 1 -0.026578125 -0.00125 -0.000590625 1.14304330702e-09
264 1 -0.026578125 -0.00125 0.000590625 3.51793249477e-10
265 1 -0.026578125 -0.00125 0.001771875 5.34349568971e-08
266 1 -0.026578125 -0.00125 0.002953125 8.57536220152e-10
267 1 -0.026578125 -0.00125 0.004134375 8.06247703244e-12
268 1 -0.026578125 -0.00125 0.005315625 3.12142788424e-08
269 1 -0.026578125 -0.00125 0.006496875 4.77297188385e-08
270 1 -0.026578125 -0.00125 0.007678125 1.98437023705e-06
271 1 -0.026578125 -0.00125 0.008859375 1.29251368684e-12
272 1 -0.026578125 -0.00125 0.010040625 4.91408757633e-14
273 1 -0.026578125 -0.00125 0.011221875 4.01143996256e-29
274 1 -0.026578125 -0.00125 0.012403125 3.78226134969e-57
275 1 -0.026578125 -0.00125 0.013584375 9.42048521641e-162
276 1 -0.026578125 -0.00125 0.014765625 0.0
277 1 -0.026578125 -0.00125 0.015946875 0.0
278 1 -0.026578125 -0.00125 0.017128125 1.27455379241e-173
279 1 -0.026578125 -0.00125 0.018309375 4.95830842978e-69
280 1 -0.026578125 -0.00125 0.019490625 5.37764912446e-37
281 1 -0.026578125 -0.00125 0.020671875 6.19126810871e-35
282 1 -0.026578125 -0.00125 0.021853125 1.20036388713e-37
283 1 -0.026578125 -0.00125 0.023034375 8.43216872193e-50
284 1 -0.026578125 -0.00125 0.024215625 8.78490503068e-84
285 1 -0.026578125 -0.00125 0.025396875 4.34116921927e-150
286 1 -0.026578125 -0.00125 0.026578125 1.90064027857e-109
287 1 -0.025396875 -0.00125 -0.026578125 0.0
288 1 -0.025396875 -0.00125 -0.025396875 0.0
289 1 -0.025396875 -0.00125 -0.024215625 0.0
290 1 -0.025396875 -0.00125 -0.023034375 0.0
291 1 -0.025396875 -0.00125 -0.021853125 0.0
292 1 -0.025396875 -0.00125 -0.020671875 0.0
293 1 -0.025396875 -0.00125 -0.019490625 2.55224369569e-85
294 1 -0.025396875 -0.00125 -0.018309375 3.1236177853e-53
295 1 -0.025396875 -0.00125 -0.017128125 1.04947071935e-17
296 1 -0.025396875 -0.00125 -0.015946875 2.6255282211e-17
297 1 -0.025396875 -0.00125 -0.014765625 5.62169451998e-07
298 1 -0.025396875 -0.00125 -0.013584375 7.69465312335e-24
299 1 -0.025396875 -0.00125 -0.012403125 9.52500071987e-21
300 1 -0.025396875 -0.00125 -0.011221875 2.47055793215e-32
301 1 -0.025396875 -0.00125 -0.010040625 6.68687324697e-31
302 1 -0.025396875 -0.00125 -0.008859375 8.21439834805e-39
303 1 -0.025396875 -0.00125 -0.007678125 1.27236260584e-18
304 1 -0.025396875 -0.00125 -0.006496875 1.90827621783e-30
305 1 -0.025396875 -0.00125 -0.005315625 9.67595596324e-17
306 1 -0.025396875 -0.00125 -0.004134375 8.1229233905e-21
307 1 -0.025396875 -0.00125 -0.002953125 7.42906875002e-13
308 1 -0.025396875 -0.00125 -0.001771875 1.70267938898e-12
309 1 -0.025396875 -0.00125 -0.000590625 1.63582295725e-13
310 1 -0.025396875 -0.00125 0.000590625 2.92840066819e-09
311 1 -0.025396875 -0.00125 0.001771875 2.29496530613e-11
312 1 -0.025396875 -0.00125 0.002953125 1.07034155167e-15
313 1 -0.025396875 -0.00125 0.004134375 1.20720960013e-07
314 1 -0.025396875 -0.00125 0.005315625 5.67923416522e-08
315 1 -0.025396875 -0.00125 0.006496875 4.93992620681e-06
316 1 -0.025396875 -0.00125 0.007678125 0.000282740849304
317 1 -0.025396875 -0.00125 0.008859375 2.69275884859e-06
318 1 -0.025396875 -0.00125 0.010040625 3.47977567188e-05
319 1 -0.025396875 -0.00125 0.011221875 4.70923637311e-09
320 1 -0.025396875 -0.00125 0.012403125 3.16222982003e-16
321 1 -0.025396875 -0.00125 0.013584375 1.24414763302e-30
322 1 -0.025396875 -0.00125 0.014765625 4.46745067359e-287
323 1 -0.025396875 -0.00125 0.015946875 1.02570514377e-155
324 1 -0.025396875 -0.00125 0.017128125 2.96158522608e-146
325 1 -0.025396875 -0.00125 0.018309375 1.22041915358e-60
326 1 -0.025396875 -0.00125 0.019490625 8.47588153938e-54
327 1 -0.025396875 -0.00125 0.020671875 2.59565941491e-48
328 1 -0.025396875 -0.00125 0.021853125 4.32455139079e-44
329 1 -0.025396875 -0.00125 0.023034375 2.76043675697e-51
330 1 -0.025396875 -0.00125 0.024215625 6.8750605535e-78
331 1 -0.025396875 -0.00125 0.025396875 9.42857033583e-165
332 1 -0.025396875 -0.00125 0.026578125 0.0
333 1 -0.024215625 -0.00125 -0.027759375 0.0
334 1 -0.024215625 -0.00125 -0.026578125 0.0
335 1 -0.024215625 -0.00125 -0.025396875 0.0
336 1 -0.024215625 -0.00125 -0.024215625 0.0
337 1 -0.024215625 -0.00125 -0.023034375 0.0
338 1 -0.024215625 -0.00125 -0.021853125 0.0
339 1 -0.024215625 -0.00125 -0.020671875 2.14952417726e-304
340 1 -0.024215625 -0.00125 -0.019490625 3.09205458757e-36
341 1 -0.024215625 -0.00125 -0.018309375 2.24624120998e-27
342 1 -0.024215625 -0.00125 -0.017128125 5.09109418878e-21
343 1 -0.024215625 -0.00125 -0.015946875 7.50414123932e-12
344 1 -0.024215625 -0.00125 -0.014765625 3.86017474365e-09
345 1 -0.024215625 -0.00125 -0.013584375 1.29279861267e-12
346 1 -0.024215625 -0.00125 -0.012403125 3.11803241221e-20
347 1 -0.024215625 -0.00125 -0.011221875 8.65556158489e-27
348 1 -0.024215625 -0.00125 -0.010040625 1.21012560598e-24
349 1 -0.024215625 -0.00125 -0.008859375 2.29993004693e-19
350 1 -0.024215625 -0.00125 -0.007678125 1.75955774198e-17
351 1 -0.024215625 -0.00125 -0.006496875 2.28332229747e-16
352 1 -0.024215625 -0.00125 -0.005315625 2.68778749513e-11
353 1 -0.024215625 -0.00125 -0.004134375 2.14700722115e-10
354 1 -0.024215625 -0.00125 -0.002953125 8.41565662663e-10
355 1 -0.024215625 -0.00125 -0.001771875 4.87064305291e-10
356 1 -0.024215625 -0.00125 -0.000590625 9.73448808269e-10
357 1 -0.024215625 -0.00125 0.000590625 8.930873191e-06
358 1 -0.024215625 -0.00125 0.001771875 5.33229000915e-07
359 1 -0.024215625 -0.00125 0.002953125 3.31277288672e-07
360 1 -0.024215625 -0.00125 0.004134375 7.84951679416e-07
361 1 -0.024215625 -0.00125 0.005315625 8.15571560242e-06
362 1 -0.024215625 -0.00125 0.006496875 1.55529744586e-07
363 1 -0.024215625 -0.00125 0.007678125 1.87130588069e-05
364 1 -0.024215625 -0.00125 0.008859375 6.99005072067e-05
365 1 -0.024215625 -0.00125 0.010040625 0.000205146249214
366 1 -0.024215625 -0.00125 0.011221875 8.77649169808e-06
367 1 -0.024215625 -0.00125 0.012403125 3.54452799706e-07
368 1 -0.024215625 -0.00125 0.013584375 1.01668222781e-14
369 1 -0.024215625 -0.00125 0.014765625 9.45862725753e-33
370 1 -0.024215625 -0.00125 0.015946875 2.49620326094e-107
371 1 -0.024215625 -0.00125 0.017128125 5.62983685328e-79
372 1 -0.024215625 -0.00125 0.018309375 7.14389816969e-41
373 1 -0.024215625 -0.00125 0.019490625 9.3600057054e-56
374 1 -0.024215625 -0.00125 0.020671875 4.87219531678e-53
375 1 -0.024215625 -0.00125 0.021853125 2.89511879344e-46
376 1 -0.024215625 -0.00125 0.023034375 5.61655120283e-74
377 1 -0.024215625 -0.00125 0.024215625 5.96642284533e-144
378 1 -0.024215625 -0.00125 0.025396875 2.21675799626e-92
379 1 -0.024215625 -0.00125 0.026578125 5.22353939141e-63
380 1 -0.024215625 -0.00125 0.027759375 2.99489451837e-62
381 1 -0.023034375 -0.00125 -0.027759375 0.0
382 1 -0.023034375 -0.00125 -0.026578125 0.0
383 1 -0.023034375 -0.00125 -0.025396875 0.0
384 1 -0.023034375 -0.00125 -0.024215625 0.0
385 1 -0.023034375 -0.00125 -0.023034375 0.0
386 1 -0.023034375 -0.00125 -0.021853125 1.43320156259e-130
387 1 -0.023034375 -0.00125 -0.020671875 6.46362318826e-91
388 1 -0.023034375 -0.00125 -0.019490625 7.53334475035e-23
389 1 -0.023034375 -0.00125 -0.018309375 3.03240486534e-24
390 1 -0.023034375 -0.00125 -0.017128125 6.42247822953e-15
391 1 -0.023034375 -0.00125 -0.015946875 1.58455288264e-13
392 1 -0.023034375 -0.00125 -0.014765625 4.13188500895e-11
393 1 -0.023034375 -0.00125 -0.013584375 1.68666263131e-14
394 1 -0.023034375 -0.00125 -0.012403125 8.80351080597e-15
395 1 -0.023034375 -0.00125 -0.011221875 1.65441614033e-20
396 1 -0.023034375 -0.00125 -0.010040625 1.40121803963e-30
397 1 -0.023034375 -0.00125 -0.008859375 3.93464307547e-25
398 1 -0.023034375 -0.00125 -0.007678125 2.82834790335e-12
399 1 -0.023034375 -0.00125 -0.006496875 1.12511426842e-17
400 1 -0.023034375 -0.00125 -0.005315625 1.86865582395e-16
401 1 -0.023034375 -0.00125 -0.004134375 1.54361108132e-19
402 1 -0.023034375 -0.00125 -0.002953125 8.94406786659e-09
403 1 -0.023034375 -0.00125 -0.001771875 1.11097023425e-09
404 1 -0.023034375 -0.00125 -0.000590625 1.7824808999e-06
405 1 -0.023034375 -0.00125 0.000590625 3.99844157723e-05
406 1 -0.023034375 -0.00125 0.001771875 0.000657121088968
407 1 -0.023034375 -0.00125 0.002953125 1.46646230463e-05
408 1 -0.023034375 -0.00125 0.004134375 7.25363459651e-06
409 1 -0.023034375 -0.00125 0.005315625 1.13997292875e-07
410 1 -0.023034375 -0.00125 0.006496875 0.000848822871791
411 1 -0.023034375 -0.00125 0.007678125 0.000882561288986
412 1 -0.023034375 -0.00125 0.008859375 0.000529807330161
413 1 -0.023034375 -0.00125 0.010040625 2.19469285533e-05
414 1 -0.023034375 -0.00125 0.011221875 8.51370440508e-06
415 1 -0.023034375 -0.00125 0.012403125 1.81583150055e-06
416 1 -0.023034375 -0.00125 0.013584375 5.00123828825e-10
417 1 -0.023034375 -0.00125 0.014765625 1.50812396398e-20
418 1 -0.023034375 -0.00125 0.015946875 3.12658480157e-29
419 1 -0.023034375 -0.00125 0.017128125 1.81625440561e-70
420 1 -0.023034375 -0.00125 0.018309375 1.10100505294e-47
421 1 -0.023034375 -0.00125 0.019490625 3.60467447912e-44
422 1 -0.023034375 -0.00125 0.020671875 2.59235293824e-28
423 1 -0.023034375 -0.00125 0.021853125 8.21546156844e-62
424 1 -0.023034375 -0.00125 0.023034375 7.07532677283e-69
425 1 -0.023034375 -0.00125 0.024215625 1.51277356844e-86
426 1 -0.023034375 -0.00125 0.025396875 2.7297528953e-41
427 1 -0.023034375 -0.00125 0.026578125 2.02163435815e-31
428 1 -0.023034375 -0.00125 0.027759375 2.50628301252e-17
429 1 -0.021853125 -0.00125 -0.028940625 0.0
430 1 -0.021853125 -0.00125 -0.027759375 0.0
431 1 -0.021853125 -0.00125 -0.026578125 0.0
432 1 -0.021853125 -0.00125 -0.025396875 0.0
433 1 -0.021853125 -0.00125 -0.024215625 0.0
434 1 -0.021853125 -0.00125 -0.023034375 0.0
435 1 -0.021853125 -0.00125 -0.021853125 3.99872187852e-79
436 1 -0.021853125 -0.00125 -0.020671875 1.90954476152e-26
437 1 -0.021853125 -0.00125 -0.019490625 1.27669861831e-16
438 1 -0.021853125 -0.00125 -0.018309375 5.47998531171e-18
439 1 -0.021853125 -0.00125 -0.017128125 5.39006738035e-11
440 1 -0.021853125 -0.00125 -0.015946875 1.81536726697e-07
441 1 -0.021853125 -0.00125 -0.014765625 6.87547067016e-08
442 1 -0.021853125 -0.00125 -0.013584375 1.94148607866e-09
443 1 -0.021853125 -0.00125 -0.012403125 1.2632819242e-09
444 1 -0.021853125 -0.00125 -0.011221875 1.96160110138e-13
445 1 -0.021853125 -0.00125 -0.010040625 7.39825290125e-18
446 1 -0.021853125 -0.00125 -0.008859375 2.12869171817e-15
447 1 -0.021853125 -0.00125 -0.007678125 1.33589297789e-09
448 1 -0.021853125 -0.00125 -0.006496875 1.21230514836e-11
449 1 -0.021853125 -0.00125 -0.005315625 8.42709916574e-10
450 1 -0.021853125 -0.00125 -0.004134375 1.8992974163e-08
451 1 -0.021853125 -0.00125 -0.002953125 4.59533061496e-09
452 1 -0.021853125 -0.00125 -0.001771875 6.13790513809e-07
453 1 -0.021853125 -0.00125 -0.000590625 0.00022191722192
454 1 -0.021853125 -0.00125 0.000590625 0.00065407887588
455 1 -0.021853125 -0.00125 0.001771875 0.000431491550063
456 1 -0.021853125 -0.00125 0.002953125 0.00142435307536
457 1 -0.021853125 -0.00125 0.004134375 0.000438549902235
458 1 -0.021853125 -0.00125 0.005315625 0.000487371627031
459 1 -0.021853125 -0.00125 0.006496875 0.00188032051089
460 1 -0.021853125 -0.00125 0.007678125 0.000541628413205
461 1 -0.021853125 -0.00125 0.008859375 0.00170212487931
462 1 -0.021853125 -0.00125 0.010040625 0.000795543279377
463 1 -0.021853125 -0.00125 0.011221875 0.000471689723902
464 1 -0.021853125 -0.00125 0.012403125 0.000148502613847
465 1 -0.021853125 -0.00125 0.013584375 1.05651009746e-07
466 1 -0.021853125 -0.00125 0.014765625 1.1811298339e-08
467 1 -0.021853125 -0.00125 0.015946875 1.49993002495e-10
468 1 -0.021853125 -0.00125 0.017128125 1.49819064661e-21
469 1 -0.021853125 -0.00125 0.018309375 2.38740591203e-39
470 1 -0.021853125 -0.00125 0.019490625 9.68152618371e-33
471 1 -0.021853125 -0.00125 0.020671875 3.28762354815e-16
472 1 -0.021853125 -0.00125 0.021853125 3.18896520757e-27
473 1 -0.021853125 -0.00125 0.023034375 8.35542132522e-43
474 1 -0.021853125 -0.00125 0.024215625 5.91772822743e-37
475 1 -0.021853125 -0.00125 0.025396875 2.34403910212e-28
476 1 -0.021853125 -0.00125 0.026578125 1.54741767388e-15
477 1 -0.021853125 -0.00125 0.027759375 2.73848156988e-14
478 1 -0.021853125 -0.00125 0.028940625 1.09079097397e-14
479 1 -0.020671875 -0.00125 -0.030121875 0.0
480 1 -0.020671875 -0.00125 -0.028940625 0.0
481 1 -0.020671875 -0.00125 -0.027759375 0.0
482 1 -0.020671875 -0.00125 -0.026578125 0.0
483 1 -0.020671875 -0.00125 -0.025396875 0.0
484 1 -0.020671875 -0.00125 -0.024215625 1.64186561244e-286
485 1 -0.020671875 -0.00125 -0.023034375 7.37532802518e-136
486 1 -0.020671875 -0.00125 -0.021853125 1.38526680438e-23
487 1 -0.020671875 -0.00125 -0.020671875 2.86386406436e-23
488 1 -0.020671875 -0.00125 -0.019490625 4.31986580984e-13
489 1 -0.020671875 -0.00125 -0.018309375 8.4167199506e-10
490 1 -0.020671875 -0.00125 -0.017128125 1.15944323469e-05
491 1 -0.020671875 -0.00125 -0.015946875 3.09248165943e-07
492 1 -0.020671875 -0.00125 -0.014765625 7.51891184146e-05
493 1 -0.020671875 -0.00125 -0.013584375 1.61149445656e-11
494 1 -0.020671875 -0.00125 -0.012403125 1.62575712661e-09
495 1 -0.020671875 -0.00125 -0.011221875 6.59597299391e-15
496 1 -0.020671875 -0.00125 -0.010040625 3.47393886287e-09
497 1 -0.020671875 -0.00125 -0.008859375 5.28936140452e-12
498 1 -0.020671875 -0.00125 -0.007678125 1.45267175972e-11
499 1 -0.020671875 -0.00125 -0.006496875 2.54005832583e-11
500 1 -0.020671875 -0.00125 -0.005315625 5.82335221543e-11
501 1 -0.020671875 -0.00125 -0.004134375 7.99094963639e-06
502 1 -0.020671875 -0.00125 -0.002953125 3.30774149016e-11
503 1 -0.020671875 -0.00125 -0.001771875 8.37682424187e-06
504 1 -0.020671875 -0.00125 -0.000590625 0.000153243331101
505 1 -0.020671875 -0.00125 0.000590625 0.00158012931826
506 1 -0.020671875 -0.00125 0.001771875 0.00022757064897
507 1 -0.020671875 -0.00125 0.002953125 4.76455612792e-05
508 1 -0.020671875 -0.00125 0.004134375 0.00014651319267
509 1 -0.020671875 -0.00125 0.005315625 0.0020911575983
510 1 -0.020671875 -0.00125 0.006496875 0.00151458360737
511 1 -0.020671875 -0.00125 0.007678125 0.00116657712136
512 1 -0.020671875 -0.00125 0.008859375 0.00028623600475
513 1 -0.020671875 -0.00125 0.010040625 0.000733645651804
514 1 -0.020671875 -0.00125 0.011221875 0.000446105839217
515 1 -0.020671875 -0.00125 0.012403125 7.98624640085e-05
516 1 -0.020671875 -0.00125 0.013584375 3.66692822757e-06
517 1 -0.020671875 -0.00125 0.014765625 2.30480570267e-07
518 1 -0.020671875 -0.00125 0.015946875 1.00223923104e-05
519 1 -0.020671875 -0.00125 0.017128125 1.73335760224e-09
520 1 -0.020671875 -0.00125 0.018309375 6.2280928709e-12
521 1 -0.020671875 -0.00125 0.019490625 5.19799261104e-10
522 1 -0.020671875 -0.00125 0.020671875 3.196359158e-09
523 1 -0.020671875 -0.00125 0.021853125 2.15910811022e-14
524 1 -0.020671875 -0.00125 0.023034375 1.5065459325e-27
525 1 -0.020671875 -0.00125 0.024215625 3.81378081819e-23
526 1 -0.020671875 -0.00125 0.025396875 3.7311934446e-14
527 1 -0.020671875 -0.00125 0.026578125 5.94096036426e-14
528 1 -0.020671875 -0.00125 0.027759375 5.10252390724e-15
529 1 -0.020671875 -0.00125 0.028940625 3.28181554495e-30
530 1 -0.020671875 -0.00125 0.030121875 1.17324570666e-69
531 1 -0.019490625 -0.00125 -0.031303125 2.76612241698e-301
532 1 -0.019490625 -0.00125 -0.030121875 0.0
533 1 -0.019490625 -0.00125 -0.028940625 0.0
534 1 -0.019490625 -0.00125 -0.027759375 0.0
535 1 -0.019490625 -0.00125 -0.026578125 3.57797629566e-146
536 1 -0.019490625 -0.00125 -0.025396875 5.21220155934e-73