ITEM: TIMESTEP
0
ITEM: NUMBER OF ATOMS
3080
ITEM: BOX BOUNDS ss ss ss
-3.7007399999999996e-02 3.7007399999999996e-02
-2.0002499999999999e-03 2.5000000000000004e-07
-3.7007399999999996e-02 3.7007399999999996e-02
ITEM: ATOMS id type x y z c_1
0 1 -0.037209375 -0.00125 -0.000590625 1.70278227554e-05
1 1 -0.036028125 -0.00125 -0.007678125 2.08894868621e-48
2 1 -0.036028125 -0.00125 -0.006496875 2.2532032588e-61
3 1 -0.036028125 -0.00125 -0.005315625 3.27190059848e-118
4 1 -0.036028125 -0.00125 -0.004134375 4.04287539226e-75
5 1 -0.036028125 -0.00125 -0.002953125 3.55941358928e-21
6 1 -0.036028125 -0.00125 -0.001771875 2.28219361153e-18
7 1 -0.036028125 -0.00125 -0.000590625 2.80845256873e-12
8 1 -0.036028125 -0.00125 0.000590625 1.59040534331e-06
9 1 -0.036028125 -0.00125 0.001771875 0.000539648816794
10 1 -0.036028125 -0.00125 0.002953125 1.17711781082e-11
11 1 -0.036028125 -0.00125 0.004134375 6.00135486479e-26
12 1 -0.036028125 -0.00125 0.005315625 4.24803719021e-42
13 1 -0.036028125 -0.00125 0.006496875 1.39560132445e-21
14 1 -0.036028125 -0.00125 0.007678125 2.94076955623e-12
15 1 -0.034846875 -0.00125 -0.011221875 2.93926333225e-20
16 1 -0.034846875 -0.00125 -0.010040625 2.5506088866e-29
17 1 -0.034846875 -0.00125 -0.008859375 2.3973124343e-31
18 1 -0.034846875 -0.00125 -0.007678125 4.47090130916e-80
19 1 -0.034846875 -0.00125 -0.006496875 7.43904507007e-146
20 1 -0.034846875 -0.00125 -0.005315625 1.45332614503e-145
21 1 -0.034846875 -0.00125 -0.004134375 2.50413105905e-64
22 1 -0.034846875 -0.00125 -0.002953125 2.85868088368e-38
23 1 -0.034846875 -0.00125 -0.001771875 2.58437742343e-23
24 1 -0.034846875 -0.00125 -0.000590625 2.45753249695e-14
25 1 -0.034846875 -0.00125 0.000590625 1.02571002352e-07
26 1 -0.034846875 -0.00125 0.001771875 4.53805374899e-08
27 1 -0.034846875 -0.00125 0.002953125 1.60734079306e-13
28 1 -0.034846875 -0.00125 0.004134375 6.13719126646e-36
29 1 -0.034846875 -0.00125 0.005315625 2.29272222078e-64
30 1 -0.034846875 -0.00125 0.006496875 1.96370537879e-53
31 1 -0.034846875 -0.00125 0.007678125 1.98352542419e-10
32 1 -0.034846875 -0.00125 0.008859375 0.00458517370961
33 1 -0.034846875 -0.00125 0.010040625 1.18342529094e-05
34 1 -0.034846875 -0.00125 0.011221875 0.00102797105149
35 1 -0.033665625 -0.00125 -0.013584375 1.05552600178e-25
36 1 -0.033665625 -0.00125 -0.012403125 1.70638463931e-08
37 1 -0.033665625 -0.00125 -0.011221875 1.19374439071e-15
38 1 -0.033665625 -0.00125 -0.010040625 1.07405155584e-18
39 1 -0.033665625 -0.00125 -0.008859375 3.01464017884e-25
40 1 -0.033665625 -0.00125 -0.007678125 1.19072087287e-70
41 1 -0.033665625 -0.00125 -0.006496875 1.06694739914e-108
42 1 -0.033665625 -0.00125 -0.005315625 3.87895819331e-161
43 1 -0.033665625 -0.00125 -0.004134375 1.83325054478e-61
44 1 -0.033665625 -0.00125 -0.002953125 2.37148078569e-24
45 1 -0.033665625 -0.00125 -0.001771875 1.78789987527e-16
46 1 -0.033665625 -0.00125 -0.000590625 1.72689767818e-11
47 1 -0.033665625 -0.00125 0.000590625 2.62142744539e-07
48 1 -0.033665625 -0.00125 0.001771875 2.37948765234e-06
49 1 -0.033665625 -0.00125 0.002953125 6.41729500376e-10
50 1 -0.033665625 -0.00125 0.004134375 3.01086991133e-25
51 1 -0.033665625 -0.00125 0.005315625 1.36284731127e-25
52 1 -0.033665625 -0.00125 0.006496875 4.63743254584e-26
53 1 -0.033665625 -0.00125 0.007678125 5.41833491567e-07
54 1 -0.033665625 -0.00125 0.008859375 0.000324884199689
55 1 -0.033665625 -0.00125 0.010040625 0.00012881680961
56 1 -0.033665625 -0.00125 0.011221875 0.0074345318167
57 1 -0.033665625 -0.00125 0.012403125 0.130512727045
58 1 -0.033665625 -0.00125 0.013584375 0.000147512687536
59 1 -0.032484375 -0.00125 -0.018309375 8.07536003925e-22
60 1 -0.032484375 -0.00125 -0.017128125 2.00405561191e-20
61 1 -0.032484375 -0.00125 -0.015946875 7.20030967515e-12
62 1 -0.032484375 -0.00125 -0.014765625 5.66228138967e-17
63 1 -0.032484375 -0.00125 -0.013584375 1.88936725731e-19
64 1 -0.032484375 -0.00125 -0.012403125 3.17994499945e-13
65 1 -0.032484375 -0.00125 -0.011221875 7.90559090029e-15
66 1 -0.032484375 -0.00125 -0.010040625 2.37412455209e-18
67 1 -0.032484375 -0.00125 -0.008859375 1.09921290907e-21
68 1 -0.032484375 -0.00125 -0.007678125 1.04618240365e-21
69 1 -0.032484375 -0.00125 -0.006496875 6.32906320154e-78
70 1 -0.032484375 -0.00125 -0.005315625 1.9842387345e-74
71 1 -0.032484375 -0.00125 -0.004134375 7.76031618609e-42
72 1 -0.032484375 -0.00125 -0.002953125 1.33812630012e-19
73 1 -0.032484375 -0.00125 -0.001771875 3.18022700646e-12
74 1 -0.032484375 -0.00125 -0.000590625 1.83413396197e-12
75 1 -0.032484375 -0.00125 0.000590625 6.64028301763e-09
76 1 -0.032484375 -0.00125 0.001771875 2.03976348379e-08
77 1 -0.032484375 -0.00125 0.002953125 1.78710795525e-09
78 1 -0.032484375 -0.00125 0.004134375 1.2815128509e-25
79 1 -0.032484375 -0.00125 0.005315625 9.96312153194e-20
80 1 -0.032484375 -0.00125 0.006496875 8.95131121563e-21
81 1 -0.032484375 -0.00125 0.007678125 1.98635408322e-08
82 1 -0.032484375 -0.00125 0.008859375 3.61551563792e-05
83 1 -0.032484375 -0.00125 0.010040625 0.000158387536456
84 1 -0.032484375 -0.00125 0.011221875 0.0262219812464
85 1 -0.032484375 -0.00125 0.012403125 0.0177016072485
86 1 -0.032484375 -0.00125 0.013584375 1.99327824787e-09
87 1 -0.032484375 -0.00125 0.014765625 4.20263392084e-05
88 1 -0.032484375 -0.00125 0.015946875 0.0002446548468
89 1 -0.032484375 -0.00125 0.017128125 0.00187331406838
90 1 -0.032484375 -0.00125 0.018309375 0.000894155959674
91 1 -0.031303125 -0.00125 -0.019490625 5.68158533152e-55
92 1 -0.031303125 -0.00125 -0.018309375 8.15824491181e-31
93 1 -0.031303125 -0.00125 -0.017128125 9.37053584516e-21
94 1 -0.031303125 -0.00125 -0.015946875 4.05232068717e-19
95 1 -0.031303125 -0.00125 -0.014765625 1.41407425296e-12
96 1 -0.031303125 -0.00125 -0.013584375 7.36071108765e-17
97 1 -0.031303125 -0.00125 -0.012403125 5.79964898965e-17
98 1 -0.031303125 -0.00125 -0.011221875 1.35976527977e-14
99 1 -0.031303125 -0.00125 -0.010040625 6.61826526343e-14
100 1 -0.031303125 -0.00125 -0.008859375 3.31461947386e-18
101 1 -0.031303125 -0.00125 -0.007678125 1.33154540954e-21
102 1 -0.031303125 -0.00125 -0.006496875 3.3222606519e-27
103 1 -0.031303125 -0.00125 -0.005315625 6.32633526441e-27
104 1 -0.031303125 -0.00125 -0.004134375 3.89142982484e-18
105 1 -0.031303125 -0.00125 -0.002953125 2.59539217595e-14
106 1 -0.031303125 -0.00125 -0.001771875 8.46815368684e-10
107 1 -0.031303125 -0.00125 -0.000590625 1.44985062601e-10
108 1 -0.031303125 -0.00125 0.000590625 1.04364739572e-09
109 1 -0.031303125 -0.00125 0.001771875 5.23069826337e-09
110 1 -0.031303125 -0.00125 0.002953125 1.34598757541e-09
111 1 -0.031303125 -0.00125 0.004134375 5.98269138975e-14
112 1 -0.031303125 -0.00125 0.005315625 4.85691136149e-12
113 1 -0.031303125 -0.00125 0.006496875 4.18823668407e-13
114 1 -0.031303125 -0.00125 0.007678125 8.0160285187e-09
115 1 -0.031303125 -0.00125 0.008859375 1.06621180243e-07
116 1 -0.031303125 -0.00125 0.010040625 1.11124228369e-06
117 1 -0.031303125 -0.00125 0.011221875 0.000190388483043
118 1 -0.031303125 -0.00125 0.012403125 0.000415273332431
119 1 -0.031303125 -0.00125 0.013584375 1.88825268122e-07
120 1 -0.031303125 -0.00125 0.014765625 3.88443230926e-06
121 1 -0.031303125 -0.00125 0.015946875 0.000166243605125
122 1 -0.031303125 -0.00125 0.017128125 0.000249532558686
123 1 -0.031303125 -0.00125 0.018309375 0.000208700163124
124 1 -0.031303125 -0.00125 0.019490625 1.57727717527e-06
125 1 -0.030121875 -0.00125 -0.020671875 3.72559977922e-155
126 1 -0.030121875 -0.00125 -0.019490625 2.24123578583e-66
127 1 -0.030121875 -0.00125 -0.018309375 5.17225804643e-29
128 1 -0.030121875 -0.00125 -0.017128125 1.89599689296e-13
129 1 -0.030121875 -0.00125 -0.015946875 2.53155111825e-18
130 1 -0.030121875 -0.00125 -0.014765625 1.95992482197e-10
131 1 -0.030121875 -0.00125 -0.013584375 2.1345271459e-08
132 1 -0.030121875 -0.00125 -0.012403125 1.19910142872e-09
133 1 -0.030121875 -0.00125 -0.011221875 3.60708004105e-09
134 1 -0.030121875 -0.00125 -0.010040625 6.70817908112e-15
135 1 -0.030121875 -0.00125 -0.008859375 1.11871733817e-17
136 1 -0.030121875 -0.00125 -0.007678125 7.81670545084e-19
137 1 -0.030121875 -0.00125 -0.006496875 1.74101780873e-21
138 1 -0.030121875 -0.00125 -0.005315625 7.86138507777e-14
139 1 -0.030121875 -0.00125 -0.004134375 9.62160358492e-13
140 1 -0.030121875 -0.00125 -0.002953125 1.57167979978e-11
141 1 -0.030121875 -0.00125 -0.001771875 1.13181601044e-08
142 1 -0.030121875 -0.00125 -0.000590625 1.09025551659e-12
143 1 -0.030121875 -0.00125 0.000590625 1.60708335241e-10
144 1 -0.030121875 -0.00125 0.001771875 3.95289296466e-07
145 1 -0.030121875 -0.00125 0.002953125 9.41724498548e-12
146 1 -0.030121875 -0.00125 0.004134375 8.92692501879e-13
147 1 -0.030121875 -0.00125 0.005315625 3.55272180339e-09
148 1 -0.030121875 -0.00125 0.006496875 1.03556873348e-12
149 1 -0.030121875 -0.00125 0.007678125 7.79554684838e-09
150 1 -0.030121875 -0.00125 0.008859375 5.03507678864e-11
151 1 -0.030121875 -0.00125 0.010040625 2.76181459095e-07
152 1 -0.030121875 -0.00125 0.011221875 1.79578503725e-06
153 1 -0.030121875 -0.00125 0.012403125 1.29797913424e-05
154 1 -0.030121875 -0.00125 0.013584375 4.21128926806e-07
155 1 -0.030121875 -0.00125 0.014765625 1.19914688957e-07
156 1 -0.030121875 -0.00125 0.015946875 4.0386865975e-07
157 1 -0.030121875 -0.00125 0.017128125 9.95816487118e-05
158 1 -0.030121875 -0.00125 0.018309375 7.60976535844e-05
159 1 -0.030121875 -0.00125 0.019490625 8.96555446684e-06
160 1 -0.030121875 -0.00125 0.020671875 0.000751707164938
161 1 -0.028940625 -0.00125 -0.021853125 1.23335178143e-64
162 1 -0.028940625 -0.00125 -0.020671875 2.49463656242e-76
163 1 -0.028940625 -0.00125 -0.019490625 9.79555471721e-36
164 1 -0.028940625 -0.00125 -0.018309375 4.78711817737e-24
165 1 -0.028940625 -0.00125 -0.017128125 8.63683911671e-13
166 1 -0.028940625 -0.00125 -0.015946875 1.89410887869e-09
167 1 -0.028940625 -0.00125 -0.014765625 4.58528109002e-08
168 1 -0.028940625 -0.00125 -0.013584375 2.8394004438e-08
169 1 -0.028940625 -0.00125 -0.012403125 7.04161364666e-10
170 1 -0.028940625 -0.00125 -0.011221875 3.99014139663e-10
171 1 -0.028940625 -0.00125 -0.010040625 8.94049522524e-13
172 1 -0.028940625 -0.00125 -0.008859375 1.66522002591e-13
173 1 -0.028940625 -0.00125 -0.007678125 7.86919610969e-12
174 1 -0.028940625 -0.00125 -0.006496875 1.49468382052e-08
175 1 -0.028940625 -0.00125 -0.005315625 4.6662709216e-10
176 1 -0.028940625 -0.00125 -0.004134375 8.51599972206e-10
177 1 -0.028940625 -0.00125 -0.002953125 1.60493483444e-10
178 1 -0.028940625 -0.00125 -0.001771875 1.5233306926e-11
179 1 -0.028940625 -0.00125 -0.000590625 3.89837854893e-08
180 1 -0.028940625 -0.00125 0.000590625 4.92292456334e-13
181 1 -0.028940625 -0.00125 0.001771875 1.77923508494e-11
182 1 -0.028940625 -0.00125 0.002953125 6.36595385759e-09
183 1 -0.028940625 -0.00125 0.004134375 6.54051730196e-09
184 1 -0.028940625 -0.00125 0.005315625 6.28776561312e-09
185 1 -0.028940625 -0.00125 0.006496875 2.31836724426e-11
186 1 -0.028940625 -0.00125 0.007678125 6.94171163708e-14
187 1 -0.028940625 -0.00125 0.008859375 2.24575436475e-14
188 1 -0.028940625 -0.00125 0.010040625 2.2274665268e-13
189 1 -0.028940625 -0.00125 0.011221875 4.87890684254e-09
190 1 -0.028940625 -0.00125 0.012403125 1.33170379739e-10
191 1 -0.028940625 -0.00125 0.013584375 7.89363636244e-16
192 1 -0.028940625 -0.00125 0.014765625 1.63717845634e-11
193 1 -0.028940625 -0.00125 0.015946875 7.1662560121e-06
194 1 -0.028940625 -0.00125 0.017128125 3.23128111058e-05
195 1 -0.028940625 -0.00125 0.018309375 5.96807466719e-05
196 1 -0.028940625 -0.00125 0.019490625 0.000692204220029
197 1 -0.028940625 -0.00125 0.020671875 0.0104993376111
198 1 -0.028940625 -0.00125 0.021853125 0.0508026707226
199 1 -0.027759375 -0.00125 -0.024215625 1.43404355045e-247
200 1 -0.027759375 -0.00125 -0.023034375 8.23279691392e-207
201 1 -0.027759375 -0.00125 -0.021853125 4.50548602382e-39
202 1 -0.027759375 -0.00125 -0.020671875 2.27354536405e-95
203 1 -0.027759375 -0.00125 -0.019490625 5.04573611072e-31
204 1 -0.027759375 -0.00125 -0.018309375 5.11908154025e-19
205 1 -0.027759375 -0.00125 -0.017128125 2.62566432766e-08
206 1 -0.027759375 -0.00125 -0.015946875 4.67685462104e-05
207 1 -0.027759375 -0.00125 -0.014765625 4.88390994619e-05
208 1 -0.027759375 -0.00125 -0.013584375 5.50422438674e-06
209 1 -0.027759375 -0.00125 -0.012403125 2.15513399194e-07
210 1 -0.027759375 -0.00125 -0.011221875 1.42522596598e-07
211 1 -0.027759375 -0.00125 -0.010040625 4.90341233419e-10
212 1 -0.027759375 -0.00125 -0.008859375 3.6151621203e-12
213 1 -0.027759375 -0.00125 -0.007678125 7.17768362131e-10
214 1 -0.027759375 -0.00125 -0.006496875 1.05787484617e-07
215 1 -0.027759375 -0.00125 -0.005315625 5.63664372088e-08
216 1 -0.027759375 -0.00125 -0.004134375 6.27612368442e-08
217 1 -0.027759375 -0.00125 -0.002953125 1.19032391909e-06
218 1 -0.027759375 -0.00125 -0.001771875 5.10247810719e-08
219 1 -0.027759375 -0.00125 -0.000590625 6.22888842265e-05
220 1 -0.027759375 -0.00125 0.000590625 6.0147482043e-06
221 1 -0.027759375 -0.00125 0.001771875 1.43202125016e-06
222 1 -0.027759375 -0.00125 0.002953125 9.64864892121e-06
223 1 -0.027759375 -0.00125 0.004134375 3.73832132264e-06
224 1 -0.027759375 -0.00125 0.005315625 1.18926685381e-05
225 1 -0.027759375 -0.00125 0.006496875 4.34440501141e-08
226 1 -0.027759375 -0.00125 0.007678125 1.91342492646e-08
227 1 -0.027759375 -0.00125 0.008859375 5.60316834974e-06
228 1 -0.027759375 -0.00125 0.010040625 2.27815750856e-07
229 1 -0.027759375 -0.00125 0.011221875 7.21881740064e-15
230 1 -0.027759375 -0.00125 0.012403125 2.41036351178e-13
231 1 -0.027759375 -0.00125 0.013584375 2.06400924893e-20
232 1 -0.027759375 -0.00125 0.014765625 1.14747060992e-17
233 1 -0.027759375 -0.00125 0.015946875 3.60712858904e-08
234 1 -0.027759375 -0.00125 0.017128125 1.39730522368e-07
235 1 -0.027759375 -0.00125 0.018309375 4.20790827562e-05
236 1 -0.027759375 -0.00125 0.019490625 0.000477287971347
237 1 -0.027759375 -0.00125 0.020671875 0.00431143817671
238 1 -0.027759375 -0.00125 0.021853125 0.128723813707
239 1 -0.027759375 -0.00125 0.023034375 0.01559518967
240 1 -0.027759375 -0.00125 0.024215625 1.9563067063e-11
241 1 -0.026578125 -0.00125 -0.026578125 3.13119572573e-270
242 1 -0.026578125 -0.00125 -0.025396875 0.0
243 1 -0.026578125 -0.00125 -0.024215625 1.19516512689e-268
244 1 -0.026578125 -0.00125 -0.023034375 1.49030688241e-196
245 1 -0.026578125 -0.00125 -0.021853125 1.58401721339e-114
246 1 -0.026578125 -0.00125 -0.020671875 3.38611552376e-44
247 1 -0.026578125 -0.00125 -0.019490625 8.18909073338e-15
248 1 -0.026578125 -0.00125 -0.018309375 2.73450346826e-10
249 1 -0.026578125 -0.00125 -0.017128125 2.95151463221e-07
250 1 -0.026578125 -0.00125 -0.015946875 5.02754058036e-05
251 1 -0.026578125 -0.00125 -0.014765625 2.42230424917e-05
252 1 -0.026578125 -0.00125 -0.013584375 8.74110356524e-05
253 1 -0.026578125 -0.00125 -0.012403125 1.41465985611e-06
254 1 -0.026578125 -0.00125 -0.011221875 5.35860524982e-06
255 1 -0.026578125 -0.00125 -0.010040625 2.77782535151e-09
256 1 -0.026578125 -0.00125 -0.008859375 1.16967996471e-08
257 1 -0.026578125 -0.00125 -0.007678125 1.62047103366e-07
258 1 -0.026578125 -0.00125 -0.006496875 1.96898888058e-06
259 1 -0.026578125 -0.00125 -0.005315625 0.000281773965577
260 1 -0.026578125 -0.00125 -0.004134375 0.0023203737543
261 1 -0.026578125 -0.00125 -0.002953125 0.000748165346909
262 1 -0.026578125 -0.00125 -0.001771875 0.000614707887996
263 1 -0.026578125 -0.00125 -0.000590625 0.000828734758902
264 1 -0.026578125 -0.00125 0.000590625 0.000985303980845
265 1 -0.026578125 -0.00125 0.001771875 0.000707638465812
266 1 -0.026578125 -0.00125 0.002953125 0.00308150744869
267 1 -0.026578125 -0.00125 0.004134375 0.00215977697556
268 1 -0.026578125 -0.00125 0.005315625 0.00387153478073
269 1 -0.026578125 -0.00125 0.006496875 0.000144123229331
270 1 -0.026578125 -0.00125 0.007678125 0.000264939961124
271 1 -0.026578125 -0.00125 0.008859375 2.06490795034e-05
272 1 -0.026578125 -0.00125 0.010040625 5.84696496872e-06
273 1 -0.026578125 -0.00125 0.011221875 3.90037266178e-09
274 1 -0.026578125 -0.00125 0.012403125 1.11726393386e-10
275 1 -0.026578125 -0.00125 0.013584375 1.5259718352e-14
276 1 -0.026578125 -0.00125 0.014765625 1.08422651006e-14
277 1 -0.026578125 -0.00125 0.015946875 3.28443014838e-13
278 1 -0.026578125 -0.00125 0.017128125 2.8441972029e-09
279 1 -0.026578125 -0.00125 0.018309375 0.000254517802634
280 1 -0.026578125 -0.00125 0.019490625 0.00270426040105
281 1 -0.026578125 -0.00125 0.020671875 0.0210671414493
282 1 -0.026578125 -0.00125 0.021853125 0.0170998161129
283 1 -0.026578125 -0.00125 0.023034375 0.000516665091826
284 1 -0.026578125 -0.00125 0.024215625 7.41098483023e-07
285 1 -0.026578125 -0.00125 0.025396875 1.65141635098e-12
286 1 -0.026578125 -0.00125 0.026578125 7.01636900607e-11
287 1 -0.025396875 -0.00125 -0.026578125 0.0
288 1 -0.025396875 -0.00125 -0.025396875 0.0
289 1 -0.025396875 -0.00125 -0.024215625 1.96925196937e-240
290 1 -0.025396875 -0.00125 -0.023034375 1.34733542112e-296
291 1 -0.025396875 -0.00125 -0.021853125 2.16757094984e-89
292 1 -0.025396875 -0.00125 -0.020671875 3.81899573074e-24
293 1 -0.025396875 -0.00125 -0.019490625 1.14957040084e-09
294 1 -0.025396875 -0.00125 -0.018309375 1.06271720432e-05
295 1 -0.025396875 -0.00125 -0.017128125 0.000615363630682
296 1 -0.025396875 -0.00125 -0.015946875 0.000527062244927
297 1 -0.025396875 -0.00125 -0.014765625 0.00453123170614
298 1 -0.025396875 -0.00125 -0.013584375 0.0022988391173
299 1 -0.025396875 -0.00125 -0.012403125 0.000229580138423
300 1 -0.025396875 -0.00125 -0.011221875 0.000410914344772
301 1 -0.025396875 -0.00125 -0.010040625 2.53832017229e-05
302 1 -0.025396875 -0.00125 -0.008859375 7.17719361352e-06
303 1 -0.025396875 -0.00125 -0.007678125 2.81778502969e-07
304 1 -0.025396875 -0.00125 -0.006496875 5.71643233485e-05
305 1 -0.025396875 -0.00125 -0.005315625 0.000284487006391
306 1 -0.025396875 -0.00125 -0.004134375 0.000992120224456
307 1 -0.025396875 -0.00125 -0.002953125 0.000230965390254
308 1 -0.025396875 -0.00125 -0.001771875 2.58721511551e-05
309 1 -0.025396875 -0.00125 -0.000590625 0.000456845520251
310 1 -0.025396875 -0.00125 0.000590625 0.000359781497249
311 1 -0.025396875 -0.00125 0.001771875 0.000691827794931
312 1 -0.025396875 -0.00125 0.002953125 0.000590345383315
313 1 -0.025396875 -0.00125 0.004134375 0.00906516802207
314 1 -0.025396875 -0.00125 0.005315625 0.00800131403559
315 1 -0.025396875 -0.00125 0.006496875 0.00816314561583
316 1 -0.025396875 -0.00125 0.007678125 0.00695534619467
317 1 -0.025396875 -0.00125 0.008859375 0.00139491300916
318 1 -0.025396875 -0.00125 0.010040625 0.000183346953476
319 1 -0.025396875 -0.00125 0.011221875 1.07951203714e-06
320 1 -0.025396875 -0.00125 0.012403125 1.08119673339e-09
321 1 -0.025396875 -0.00125 0.013584375 1.19949724666e-11
322 1 -0.025396875 -0.00125 0.014765625 6.27435024253e-20
323 1 -0.025396875 -0.00125 0.015946875 1.09224332508e-11
324 1 -0.025396875 -0.00125 0.017128125 1.91738570676e-08
325 1 -0.025396875 -0.00125 0.018309375 0.000112581085823
326 1 -0.025396875 -0.00125 0.019490625 0.00464407260173
327 1 -0.025396875 -0.00125 0.020671875 0.0197637654741
328 1 -0.025396875 -0.00125 0.021853125 0.0308383257279
329 1 -0.025396875 -0.00125 0.023034375 0.00197737409803
330 1 -0.025396875 -0.00125 0.024215625 1.95403829854e-05
331 1 -0.025396875 -0.00125 0.025396875 1.00903436648e-07
332 1 -0.025396875 -0.00125 0.026578125 3.24304210414e-24
333 1 -0.024215625 -0.00125 -0.027759375 4.22886877962e-86
334 1 -0.024215625 -0.00125 -0.026578125 6.23796396828e-167
335 1 -0.024215625 -0.00125 -0.025396875 8.21274962785e-203
336 1 -0.024215625 -0.00125 -0.024215625 1.06506579757e-100
337 1 -0.024215625 -0.00125 -0.023034375 9.65606762883e-75
338 1 -0.024215625 -0.00125 -0.021853125 5.74551084557e-41
339 1 -0.024215625 -0.00125 -0.020671875 2.26576244387e-17
340 1 -0.024215625 -0.00125 -0.019490625 2.42825001486e-06
341 1 -0.024215625 -0.00125 -0.018309375 2.63600822433e-05
342 1 -0.024215625 -0.00125 -0.017128125 0.000338203433649
343 1 -0.024215625 -0.00125 -0.015946875 0.00532005649884
344 1 -0.024215625 -0.00125 -0.014765625 0.00440911435194
345 1 -0.024215625 -0.00125 -0.013584375 0.000926714890555
346 1 -0.024215625 -0.00125 -0.012403125 0.000179130803876
347 1 -0.024215625 -0.00125 -0.011221875 0.000209513785457
348 1 -0.024215625 -0.00125 -0.010040625 4.34386302333e-05
349 1 -0.024215625 -0.00125 -0.008859375 0.000334182950474
350 1 -0.024215625 -0.00125 -0.007678125 4.39047644518e-06
351 1 -0.024215625 -0.00125 -0.006496875 3.86774629444e-05
352 1 -0.024215625 -0.00125 -0.005315625 0.000930501795885
353 1 -0.024215625 -0.00125 -0.004134375 0.000106005047814
354 1 -0.024215625 -0.00125 -0.002953125 4.29063950779e-05
355 1 -0.024215625 -0.00125 -0.001771875 7.66348680211e-05
356 1 -0.024215625 -0.00125 -0.000590625 0.000603199415918
357 1 -0.024215625 -0.00125 0.000590625 0.00555630991621
358 1 -0.024215625 -0.00125 0.001771875 0.0018527507132
359 1 -0.024215625 -0.00125 0.002953125 0.00180895646628
360 1 -0.024215625 -0.00125 0.004134375 0.00466359992924
361 1 -0.024215625 -0.00125 0.005315625 0.00601722882355
362 1 -0.024215625 -0.00125 0.006496875 0.00491355503979
363 1 -0.024215625 -0.00125 0.007678125 0.00470613964105
364 1 -0.024215625 -0.00125 0.008859375 0.0040068498688
365 1 -0.024215625 -0.00125 0.010040625 0.00319304535762
366 1 -0.024215625 -0.00125 0.011221875 3.80484923271e-05
367 1 -0.024215625 -0.00125 0.012403125 3.29702058528e-06
368 1 -0.024215625 -0.00125 0.013584375 1.74795056751e-06
369 1 -0.024215625 -0.00125 0.014765625 5.44850525612e-07
370 1 -0.024215625 -0.00125 0.015946875 1.30871017659e-08
371 1 -0.024215625 -0.00125 0.017128125 1.06359997737e-05
372 1 -0.024215625 -0.00125 0.018309375 0.000571343315727
373 1 -0.024215625 -0.00125 0.019490625 0.00347296706253
374 1 -0.024215625 -0.00125 0.020671875 0.0194904697925
375 1 -0.024215625 -0.00125 0.021853125 0.0232755358153
376 1 -0.024215625 -0.00125 0.023034375 0.00576134831351
377 1 -0.024215625 -0.00125 0.024215625 1.66312650669e-05
378 1 -0.024215625 -0.00125 0.025396875 1.29208749437e-08
379 1 -0.024215625 -0.00125 0.026578125 2.06115981537e-10
380 1 -0.024215625 -0.00125 0.027759375 1.64119450854e-11
381 1 -0.023034375 -0.00125 -0.027759375 6.1202276597e-99
382 1 -0.023034375 -0.00125 -0.026578125 6.45343538139e-91
383 1 -0.023034375 -0.00125 -0.025396875 7.62681718444e-55
384 1 -0.023034375 -0.00125 -0.024215625 2.79791930082e-33
385 1 -0.023034375 -0.00125 -0.023034375 4.29828189046e-23
386 1 -0.023034375 -0.00125 -0.021853125 4.91434520634e-14
387 1 -0.023034375 -0.00125 -0.020671875 4.81596239965e-09
388 1 -0.023034375 -0.00125 -0.019490625 0.000522469182732
389 1 -0.023034375 -0.00125 -0.018309375 0.00120422031261
390 1 -0.023034375 -0.00125 -0.017128125 0.0023895603475
391 1 -0.023034375 -0.00125 -0.015946875 0.013474324828
392 1 -0.023034375 -0.00125 -0.014765625 0.00839708408843
393 1 -0.023034375 -0.00125 -0.013584375 0.00229125413815
394 1 -0.023034375 -0.00125 -0.012403125 0.000961583018602
395 1 -0.023034375 -0.00125 -0.011221875 0.000551676371586
396 1 -0.023034375 -0.00125 -0.010040625 0.000116180049097
397 1 -0.023034375 -0.00125 -0.008859375 0.001181221962
398 1 -0.023034375 -0.00125 -0.007678125 0.0004451460724
399 1 -0.023034375 -0.00125 -0.006496875 0.000134261240373
400 1 -0.023034375 -0.00125 -0.005315625 0.000278155516538
401 1 -0.023034375 -0.00125 -0.004134375 1.43047123495e-05
402 1 -0.023034375 -0.00125 -0.002953125 2.86841825637e-05
403 1 -0.023034375 -0.00125 -0.001771875 0.000647225601795
404 1 -0.023034375 -0.00125 -0.000590625 0.00347175894173
405 1 -0.023034375 -0.00125 0.000590625 0.0119190735429
406 1 -0.023034375 -0.00125 0.001771875 0.0112348469109
407 1 -0.023034375 -0.00125 0.002953125 0.0116638365311
408 1 -0.023034375 -0.00125 0.004134375 0.0136792857116
409 1 -0.023034375 -0.00125 0.005315625 0.00470005368207
410 1 -0.023034375 -0.00125 0.006496875 0.0230296261664
411 1 -0.023034375 -0.00125 0.007678125 0.0135939201855
412 1 -0.023034375 -0.00125 0.008859375 0.00446306228993
413 1 -0.023034375 -0.00125 0.010040625 0.00129949442912
414 1 -0.023034375 -0.00125 0.011221875 3.25321494809e-05
415 1 -0.023034375 -0.00125 0.012403125 2.0550077585e-05
416 1 -0.023034375 -0.00125 0.013584375 2.26385384679e-06
417 1 -0.023034375 -0.00125 0.014765625 8.03424207497e-08
418 1 -0.023034375 -0.00125 0.015946875 3.74732474795e-06
419 1 -0.023034375 -0.00125 0.017128125 4.05162305579e-06
420 1 -0.023034375 -0.00125 0.018309375 0.000534437351121
421 1 -0.023034375 -0.00125 0.019490625 0.00133124969018
422 1 -0.023034375 -0.00125 0.020671875 0.0167974839079
423 1 -0.023034375 -0.00125 0.021853125 0.0131401305903
424 1 -0.023034375 -0.00125 0.023034375 0.00920799634669
425 1 -0.023034375 -0.00125 0.024215625 1.95418008901e-05
426 1 -0.023034375 -0.00125 0.025396875 9.08055797079e-07
427 1 -0.023034375 -0.00125 0.026578125 7.75937184017e-09
428 1 -0.023034375 -0.00125 0.027759375 1.15751571479e-06
429 1 -0.021853125 -0.00125 -0.028940625 7.26647655124e-37
430 1 -0.021853125 -0.00125 -0.027759375 4.07184585842e-34
431 1 -0.021853125 -0.00125 -0.026578125 5.28991717658e-55
432 1 -0.021853125 -0.00125 -0.025396875 1.92466763484e-26
433 1 -0.021853125 -0.00125 -0.024215625 1.47412109297e-13
434 1 -0.021853125 -0.00125 -0.023034375 3.29841995715e-13
435 1 -0.021853125 -0.00125 -0.021853125 5.32293251194e-09
436 1 -0.021853125 -0.00125 -0.020671875 5.33842991112e-05
437 1 -0.021853125 -0.00125 -0.019490625 0.00225220267154
438 1 -0.021853125 -0.00125 -0.018309375 0.004418854686
439 1 -0.021853125 -0.00125 -0.017128125 0.00843898829773
440 1 -0.021853125 -0.00125 -0.015946875 0.0196894557679
441 1 -0.021853125 -0.00125 -0.014765625 0.0276792823647
442 1 -0.021853125 -0.00125 -0.013584375 0.018531479958
443 1 -0.021853125 -0.00125 -0.012403125 0.0120688437969
444 1 -0.021853125 -0.00125 -0.011221875 0.00261357221761
445 1 -0.021853125 -0.00125 -0.010040625 0.00110662881109
446 1 -0.021853125 -0.00125 -0.008859375 0.00125943431918
447 1 -0.021853125 -0.00125 -0.007678125 0.00251802389833
448 1 -0.021853125 -0.00125 -0.006496875 0.000726334533236
449 1 -0.021853125 -0.00125 -0.005315625 0.00269057128
450 1 -0.021853125 -0.00125 -0.004134375 0.000655452189611
451 1 -0.021853125 -0.00125 -0.002953125 0.000587419451089
452 1 -0.021853125 -0.00125 -0.001771875 0.0010401723085
453 1 -0.021853125 -0.00125 -0.000590625 0.0118048209659
454 1 -0.021853125 -0.00125 0.000590625 0.0118224738189
455 1 -0.021853125 -0.00125 0.001771875 0.0120679032666
456 1 -0.021853125 -0.00125 0.002953125 0.0274957382922
457 1 -0.021853125 -0.00125 0.004134375 0.0392989824752
458 1 -0.021853125 -0.00125 0.005315625 0.0470012274826
459 1 -0.021853125 -0.00125 0.006496875 0.0339554431608
460 1 -0.021853125 -0.00125 0.007678125 0.0134705350648
461 1 -0.021853125 -0.00125 0.008859375 0.00979257922896
462 1 -0.021853125 -0.00125 0.010040625 0.00284555651899
463 1 -0.021853125 -0.00125 0.011221875 0.00124449488534
464 1 -0.021853125 -0.00125 0.012403125 0.000422109454944
465 1 -0.021853125 -0.00125 0.013584375 9.11710041086e-05
466 1 -0.021853125 -0.00125 0.014765625 0.000109423524355
467 1 -0.021853125 -0.00125 0.015946875 0.000124860827039
468 1 -0.021853125 -0.00125 0.017128125 0.000750287384632
469 1 -0.021853125 -0.00125 0.018309375 0.00444114478953
470 1 -0.021853125 -0.00125 0.019490625 0.00500756282803
471 1 -0.021853125 -0.00125 0.020671875 0.0316657174866
472 1 -0.021853125 -0.00125 0.021853125 0.0136826948574
473 1 -0.021853125 -0.00125 0.023034375 0.00372955289429
474 1 -0.021853125 -0.00125 0.024215625 0.000587743247035
475 1 -0.021853125 -0.00125 0.025396875 4.95689890549e-06
476 1 -0.021853125 -0.00125 0.026578125 5.15903172748e-06
477 1 -0.021853125 -0.00125 0.027759375 7.71892325222e-05
478 1 -0.021853125 -0.00125 0.028940625 0.000166254616343
479 1 -0.020671875 -0.00125 -0.030121875 5.09987763462e-56
480 1 -0.020671875 -0.00125 -0.028940625 1.41407641681e-51
481 1 -0.020671875 -0.00125 -0.027759375 1.41959630806e-37
482 1 -0.020671875 -0.00125 -0.026578125 2.73164455549e-32
483 1 -0.020671875 -0.00125 -0.025396875 4.90794646111e-17
484 1 -0.020671875 -0.00125 -0.024215625 5.31712902433e-09
485 1 -0.020671875 -0.00125 -0.023034375 1.5606082691e-07
486 1 -0.020671875 -0.00125 -0.021853125 2.76530719474e-05
487 1 -0.020671875 -0.00125 -0.020671875 0.000189570849841
488 1 -0.020671875 -0.00125 -0.019490625 0.00377174740995
489 1 -0.020671875 -0.00125 -0.018309375 0.0134697604403
490 1 -0.020671875 -0.00125 -0.017128125 0.0204912730285
491 1 -0.020671875 -0.00125 -0.015946875 0.04363437455
492 1 -0.020671875 -0.00125 -0.014765625 0.0726199058201
493 1 -0.020671875 -0.00125 -0.013584375 0.0297135339928
494 1 -0.020671875 -0.00125 -0.012403125 0.0155617586499
495 1 -0.020671875 -0.00125 -0.011221875 0.00846777558453
496 1 -0.020671875 -0.00125 -0.010040625 0.0113368292424
497 1 -0.020671875 -0.00125 -0.008859375 0.0071197260622
498 1 -0.020671875 -0.00125 -0.007678125 0.00182263920321
499 1 -0.020671875 -0.00125 -0.006496875 0.00373189379368
500 1 -0.020671875 -0.00125 -0.005315625 0.00404032246794
501 1 -0.020671875 -0.00125 -0.004134375 0.00216226213347
502 1 -0.020671875 -0.00125 -0.002953125 0.0013744597565
503 1 -0.020671875 -0.00125 -0.001771875 0.00449039020404
504 1 -0.020671875 -0.00125 -0.000590625 0.0155677647635
505 1 -0.020671875 -0.00125 0.000590625 0.0183510843519
506 1 -0.020671875 -0.00125 0.001771875 0.0144335096407
507 1 -0.020671875 -0.00125 0.002953125 0.0197820228396
508 1 -0.020671875 -0.00125 0.004134375 0.0411361195615
509 1 -0.020671875 -0.00125 0.005315625 0.056751789231
510 1 -0.020671875 -0.00125 0.006496875 0.0315904307343
511 1 -0.020671875 -0.00125 0.007678125 0.0116320548178
512 1 -0.020671875 -0.00125 0.008859375 0.00717397782161
513 1 -0.020671875 -0.00125 0.010040625 0.00308743982073