ITEM: TIMESTEP
0
ITEM: NUMBER OF ATOMS
3080
ITEM: BOX BOUNDS ss ss ss
-3.7007399999999996e-02 3.7007399999999996e-02
-2.0002499999999999e-03 2.5000000000000004e-07
-3.7007399999999996e-02 3.7007399999999996e-02
ITEM: ATOMS id type x y z c_1
0 1 -0.037209375 -0.00125 -0.000590625 0.985291728864
1 1 -0.036028125 -0.00125 -0.007678125 0.00536887820532
2 1 -0.036028125 -0.00125 -0.006496875 0.000122813748532
3 1 -0.036028125 -0.00125 -0.005315625 6.98101040521e-06
4 1 -0.036028125 -0.00125 -0.004134375 0.000205071905854
5 1 -0.036028125 -0.00125 -0.002953125 0.0685786389676
6 1 -0.036028125 -0.00125 -0.001771875 0.199099580733
7 1 -0.036028125 -0.00125 -0.000590625 0.120863382656
8 1 -0.036028125 -0.00125 0.000590625 0.0033047915708
9 1 -0.036028125 -0.00125 0.001771875 0.00262550157481
10 1 -0.036028125 -0.00125 0.002953125 5.3534584078e-07
11 1 -0.036028125 -0.00125 0.004134375 2.35095828592e-09
12 1 -0.036028125 -0.00125 0.005315625 2.04688837973e-09
13 1 -0.036028125 -0.00125 0.006496875 5.70234047094e-07
14 1 -0.036028125 -0.00125 0.007678125 6.38589364163e-05
15 1 -0.034846875 -0.00125 -0.011221875 0.03398570859
16 1 -0.034846875 -0.00125 -0.010040625 0.0237955111946
17 1 -0.034846875 -0.00125 -0.008859375 0.146825975721
18 1 -0.034846875 -0.00125 -0.007678125 0.00218967325027
19 1 -0.034846875 -0.00125 -0.006496875 0.000417745277302
20 1 -0.034846875 -0.00125 -0.005315625 1.28226754576e-05
21 1 -0.034846875 -0.00125 -0.004134375 7.16135193533e-05
22 1 -0.034846875 -0.00125 -0.002953125 0.0756305617036
23 1 -0.034846875 -0.00125 -0.001771875 0.189599275336
24 1 -0.034846875 -0.00125 -0.000590625 0.120479758893
25 1 -0.034846875 -0.00125 0.000590625 0.00421202366964
26 1 -0.034846875 -0.00125 0.001771875 5.63872622348e-05
27 1 -0.034846875 -0.00125 0.002953125 1.19918128361e-07
28 1 -0.034846875 -0.00125 0.004134375 7.12281402348e-11
29 1 -0.034846875 -0.00125 0.005315625 1.62964421633e-11
30 1 -0.034846875 -0.00125 0.006496875 5.61533800967e-10
31 1 -0.034846875 -0.00125 0.007678125 7.29111073804e-05
32 1 -0.034846875 -0.00125 0.008859375 0.0191913542316
33 1 -0.034846875 -0.00125 0.010040625 0.0015407775671
34 1 -0.034846875 -0.00125 0.011221875 0.000834561514233
35 1 -0.033665625 -0.00125 -0.013584375 0.0106578749413
36 1 -0.033665625 -0.00125 -0.012403125 0.234109491306
37 1 -0.033665625 -0.00125 -0.011221875 0.0903518874569
38 1 -0.033665625 -0.00125 -0.010040625 0.0593635294212
39 1 -0.033665625 -0.00125 -0.008859375 0.0899589336125
40 1 -0.033665625 -0.00125 -0.007678125 0.0142306444924
41 1 -0.033665625 -0.00125 -0.006496875 0.0017112609022
42 1 -0.033665625 -0.00125 -0.005315625 7.96850970479e-05
43 1 -0.033665625 -0.00125 -0.004134375 0.0268932662147
44 1 -0.033665625 -0.00125 -0.002953125 0.0856278747463
45 1 -0.033665625 -0.00125 -0.001771875 0.204548328926
46 1 -0.033665625 -0.00125 -0.000590625 0.204653125616
47 1 -0.033665625 -0.00125 0.000590625 0.0138914772907
48 1 -0.033665625 -0.00125 0.001771875 0.000100550536456
49 1 -0.033665625 -0.00125 0.002953125 7.39957122232e-06
50 1 -0.033665625 -0.00125 0.004134375 9.64823559797e-09
51 1 -0.033665625 -0.00125 0.005315625 2.09893529429e-08
52 1 -0.033665625 -0.00125 0.006496875 7.18883994372e-07
53 1 -0.033665625 -0.00125 0.007678125 0.000343210481499
54 1 -0.033665625 -0.00125 0.008859375 0.00860027499702
55 1 -0.033665625 -0.00125 0.010040625 0.00208747571535
56 1 -0.033665625 -0.00125 0.011221875 0.00339884983071
57 1 -0.033665625 -0.00125 0.012403125 0.0137980864596
58 1 -0.033665625 -0.00125 0.013584375 2.38919757147e-05
59 1 -0.032484375 -0.00125 -0.018309375 0.027425357039
60 1 -0.032484375 -0.00125 -0.017128125 0.0505811268199
61 1 -0.032484375 -0.00125 -0.015946875 0.116713508637
62 1 -0.032484375 -0.00125 -0.014765625 0.055080873052
63 1 -0.032484375 -0.00125 -0.013584375 0.0335330537607
64 1 -0.032484375 -0.00125 -0.012403125 0.299351506274
65 1 -0.032484375 -0.00125 -0.011221875 0.178951750062
66 1 -0.032484375 -0.00125 -0.010040625 0.126205926937
67 1 -0.032484375 -0.00125 -0.008859375 0.169644923254
68 1 -0.032484375 -0.00125 -0.007678125 0.0377169516521
69 1 -0.032484375 -0.00125 -0.006496875 0.00154100820533
70 1 -0.032484375 -0.00125 -0.005315625 0.00160838698642
71 1 -0.032484375 -0.00125 -0.004134375 0.0121777218079
72 1 -0.032484375 -0.00125 -0.002953125 0.0467043526841
73 1 -0.032484375 -0.00125 -0.001771875 0.0829438657956
74 1 -0.032484375 -0.00125 -0.000590625 0.144688377868
75 1 -0.032484375 -0.00125 0.000590625 0.0599865048652
76 1 -0.032484375 -0.00125 0.001771875 0.0289261434333
77 1 -0.032484375 -0.00125 0.002953125 0.00396459623035
78 1 -0.032484375 -0.00125 0.004134375 0.00331124679454
79 1 -0.032484375 -0.00125 0.005315625 0.000803299068539
80 1 -0.032484375 -0.00125 0.006496875 0.00343276075353
81 1 -0.032484375 -0.00125 0.007678125 0.00608404964684
82 1 -0.032484375 -0.00125 0.008859375 0.0196202221489
83 1 -0.032484375 -0.00125 0.010040625 0.0113637839403
84 1 -0.032484375 -0.00125 0.011221875 0.0115744816524
85 1 -0.032484375 -0.00125 0.012403125 0.0063427287761
86 1 -0.032484375 -0.00125 0.013584375 1.27718292734e-05
87 1 -0.032484375 -0.00125 0.014765625 9.08832144482e-05
88 1 -0.032484375 -0.00125 0.015946875 4.45832197602e-05
89 1 -0.032484375 -0.00125 0.017128125 5.86058178428e-06
90 1 -0.032484375 -0.00125 0.018309375 2.02964224037e-06
91 1 -0.031303125 -0.00125 -0.019490625 0.0190798696179
92 1 -0.031303125 -0.00125 -0.018309375 0.0724296825051
93 1 -0.031303125 -0.00125 -0.017128125 0.148175187845
94 1 -0.031303125 -0.00125 -0.015946875 0.176416687598
95 1 -0.031303125 -0.00125 -0.014765625 0.184968133235
96 1 -0.031303125 -0.00125 -0.013584375 0.130055605201
97 1 -0.031303125 -0.00125 -0.012403125 0.276806138196
98 1 -0.031303125 -0.00125 -0.011221875 0.233009484477
99 1 -0.031303125 -0.00125 -0.010040625 0.146075987919
100 1 -0.031303125 -0.00125 -0.008859375 0.0692193664581
101 1 -0.031303125 -0.00125 -0.007678125 0.0229434647847
102 1 -0.031303125 -0.00125 -0.006496875 0.00381248989378
103 1 -0.031303125 -0.00125 -0.005315625 0.00468553126539
104 1 -0.031303125 -0.00125 -0.004134375 0.00107958697712
105 1 -0.031303125 -0.00125 -0.002953125 0.00716804998169
106 1 -0.031303125 -0.00125 -0.001771875 0.0262855449285
107 1 -0.031303125 -0.00125 -0.000590625 0.0990957760069
108 1 -0.031303125 -0.00125 0.000590625 0.0614082159807
109 1 -0.031303125 -0.00125 0.001771875 0.0369083378877
110 1 -0.031303125 -0.00125 0.002953125 0.0582046689555
111 1 -0.031303125 -0.00125 0.004134375 0.0279658821439
112 1 -0.031303125 -0.00125 0.005315625 0.0222600400618
113 1 -0.031303125 -0.00125 0.006496875 0.0145292184193
114 1 -0.031303125 -0.00125 0.007678125 0.018429285259
115 1 -0.031303125 -0.00125 0.008859375 0.00905589206139
116 1 -0.031303125 -0.00125 0.010040625 0.00629983075316
117 1 -0.031303125 -0.00125 0.011221875 0.010134450996
118 1 -0.031303125 -0.00125 0.012403125 0.0112819338782
119 1 -0.031303125 -0.00125 0.013584375 0.000806665535699
120 1 -0.031303125 -0.00125 0.014765625 0.000227593220572
121 1 -0.031303125 -0.00125 0.015946875 2.7500629173e-05
122 1 -0.031303125 -0.00125 0.017128125 4.00705015871e-07
123 1 -0.031303125 -0.00125 0.018309375 5.49442096809e-07
124 1 -0.031303125 -0.00125 0.019490625 1.41106682825e-08
125 1 -0.030121875 -0.00125 -0.020671875 0.00370447850261
126 1 -0.030121875 -0.00125 -0.019490625 0.0269187784769
127 1 -0.030121875 -0.00125 -0.018309375 0.080596539631
128 1 -0.030121875 -0.00125 -0.017128125 0.121290797724
129 1 -0.030121875 -0.00125 -0.015946875 0.256140402719
130 1 -0.030121875 -0.00125 -0.014765625 0.166947367334
131 1 -0.030121875 -0.00125 -0.013584375 0.102025797522
132 1 -0.030121875 -0.00125 -0.012403125 0.15984009663
133 1 -0.030121875 -0.00125 -0.011221875 0.0894488113842
134 1 -0.030121875 -0.00125 -0.010040625 0.032729894465
135 1 -0.030121875 -0.00125 -0.008859375 0.00831639782077
136 1 -0.030121875 -0.00125 -0.007678125 0.00329069154279
137 1 -0.030121875 -0.00125 -0.006496875 0.000366247279282
138 1 -0.030121875 -0.00125 -0.005315625 0.00159051286716
139 1 -0.030121875 -0.00125 -0.004134375 0.00174612708109
140 1 -0.030121875 -0.00125 -0.002953125 0.00289470466857
141 1 -0.030121875 -0.00125 -0.001771875 0.0301352834706
142 1 -0.030121875 -0.00125 -0.000590625 0.0392225542643
143 1 -0.030121875 -0.00125 0.000590625 0.0450235794959
144 1 -0.030121875 -0.00125 0.001771875 0.0620309549225
145 1 -0.030121875 -0.00125 0.002953125 0.0455717683814
146 1 -0.030121875 -0.00125 0.004134375 0.0395252529583
147 1 -0.030121875 -0.00125 0.005315625 0.0522376964672
148 1 -0.030121875 -0.00125 0.006496875 0.0190049582066
149 1 -0.030121875 -0.00125 0.007678125 0.0312556648803
150 1 -0.030121875 -0.00125 0.008859375 0.013429405241
151 1 -0.030121875 -0.00125 0.010040625 0.0231948117374
152 1 -0.030121875 -0.00125 0.011221875 0.0310218161214
153 1 -0.030121875 -0.00125 0.012403125 0.028116699085
154 1 -0.030121875 -0.00125 0.013584375 0.0189841948879
155 1 -0.030121875 -0.00125 0.014765625 0.00621761021943
156 1 -0.030121875 -0.00125 0.015946875 7.96072834622e-05
157 1 -0.030121875 -0.00125 0.017128125 7.83533558916e-05
158 1 -0.030121875 -0.00125 0.018309375 5.22444016717e-06
159 1 -0.030121875 -0.00125 0.019490625 1.87099376299e-08
160 1 -0.030121875 -0.00125 0.020671875 1.56338276245e-11
161 1 -0.028940625 -0.00125 -0.021853125 0.0177882636654
162 1 -0.028940625 -0.00125 -0.020671875 0.0136487880024
163 1 -0.028940625 -0.00125 -0.019490625 0.0424578174232
164 1 -0.028940625 -0.00125 -0.018309375 0.0654120089391
165 1 -0.028940625 -0.00125 -0.017128125 0.103311822128
166 1 -0.028940625 -0.00125 -0.015946875 0.143034830688
167 1 -0.028940625 -0.00125 -0.014765625 0.134132781609
168 1 -0.028940625 -0.00125 -0.013584375 0.0646780421103
169 1 -0.028940625 -0.00125 -0.012403125 0.0347878701768
170 1 -0.028940625 -0.00125 -0.011221875 0.0321173290683
171 1 -0.028940625 -0.00125 -0.010040625 0.0123731536805
172 1 -0.028940625 -0.00125 -0.008859375 0.00305363702932
173 1 -0.028940625 -0.00125 -0.007678125 0.000903204110888
174 1 -0.028940625 -0.00125 -0.006496875 0.00213975084746
175 1 -0.028940625 -0.00125 -0.005315625 0.00402579694172
176 1 -0.028940625 -0.00125 -0.004134375 0.00925494995826
177 1 -0.028940625 -0.00125 -0.002953125 0.0131254079685
178 1 -0.028940625 -0.00125 -0.001771875 0.0279846235856
179 1 -0.028940625 -0.00125 -0.000590625 0.0590436362915
180 1 -0.028940625 -0.00125 0.000590625 0.0409491017397
181 1 -0.028940625 -0.00125 0.001771875 0.0215974936558
182 1 -0.028940625 -0.00125 0.002953125 0.0239830493905
183 1 -0.028940625 -0.00125 0.004134375 0.00744452306677
184 1 -0.028940625 -0.00125 0.005315625 0.0113721790872
185 1 -0.028940625 -0.00125 0.006496875 0.0425917878507
186 1 -0.028940625 -0.00125 0.007678125 0.0222533350817
187 1 -0.028940625 -0.00125 0.008859375 0.00857049594799
188 1 -0.028940625 -0.00125 0.010040625 0.0217666501578
189 1 -0.028940625 -0.00125 0.011221875 0.0449673053465
190 1 -0.028940625 -0.00125 0.012403125 0.040702608319
191 1 -0.028940625 -0.00125 0.013584375 0.0323525347678
192 1 -0.028940625 -0.00125 0.014765625 0.0043411950907
193 1 -0.028940625 -0.00125 0.015946875 0.000783751783561
194 1 -0.028940625 -0.00125 0.017128125 0.000469647792825
195 1 -0.028940625 -0.00125 0.018309375 0.000158965190345
196 1 -0.028940625 -0.00125 0.019490625 1.00748754346e-06
197 1 -0.028940625 -0.00125 0.020671875 8.16905709406e-07
198 1 -0.028940625 -0.00125 0.021853125 0.000443128326846
199 1 -0.027759375 -0.00125 -0.024215625 2.28738970457e-06
200 1 -0.027759375 -0.00125 -0.023034375 0.000553525181459
201 1 -0.027759375 -0.00125 -0.021853125 0.0169717586184
202 1 -0.027759375 -0.00125 -0.020671875 0.00595949516378
203 1 -0.027759375 -0.00125 -0.019490625 0.0302778678904
204 1 -0.027759375 -0.00125 -0.018309375 0.0578367848201
205 1 -0.027759375 -0.00125 -0.017128125 0.131476815579
206 1 -0.027759375 -0.00125 -0.015946875 0.0722584337113
207 1 -0.027759375 -0.00125 -0.014765625 0.068124720859
208 1 -0.027759375 -0.00125 -0.013584375 0.021131265844
209 1 -0.027759375 -0.00125 -0.012403125 0.014604453144
210 1 -0.027759375 -0.00125 -0.011221875 0.0242297902514
211 1 -0.027759375 -0.00125 -0.010040625 0.0113326548923
212 1 -0.027759375 -0.00125 -0.008859375 0.00930604814068
213 1 -0.027759375 -0.00125 -0.007678125 0.0225607997887
214 1 -0.027759375 -0.00125 -0.006496875 0.0124068796646
215 1 -0.027759375 -0.00125 -0.005315625 0.0196175199707
216 1 -0.027759375 -0.00125 -0.004134375 0.0273682196148
217 1 -0.027759375 -0.00125 -0.002953125 0.0268872494011
218 1 -0.027759375 -0.00125 -0.001771875 0.0578131230895
219 1 -0.027759375 -0.00125 -0.000590625 0.0930029432662
220 1 -0.027759375 -0.00125 0.000590625 0.0656330902011
221 1 -0.027759375 -0.00125 0.001771875 0.0567234332429
222 1 -0.027759375 -0.00125 0.002953125 0.0220285822626
223 1 -0.027759375 -0.00125 0.004134375 0.0208374613207
224 1 -0.027759375 -0.00125 0.005315625 0.036680345626
225 1 -0.027759375 -0.00125 0.006496875 0.0787165553629
226 1 -0.027759375 -0.00125 0.007678125 0.120102760475
227 1 -0.027759375 -0.00125 0.008859375 0.0699096759915
228 1 -0.027759375 -0.00125 0.010040625 0.0513934792323
229 1 -0.027759375 -0.00125 0.011221875 0.057331834961
230 1 -0.027759375 -0.00125 0.012403125 0.0503630211047
231 1 -0.027759375 -0.00125 0.013584375 0.0380504911897
232 1 -0.027759375 -0.00125 0.014765625 0.0213612721146
233 1 -0.027759375 -0.00125 0.015946875 0.00201311324471
234 1 -0.027759375 -0.00125 0.017128125 0.00100704715157
235 1 -0.027759375 -0.00125 0.018309375 0.000401522428252
236 1 -0.027759375 -0.00125 0.019490625 0.000105099780157
237 1 -0.027759375 -0.00125 0.020671875 0.000175350573115
238 1 -0.027759375 -0.00125 0.021853125 0.00122686591792
239 1 -0.027759375 -0.00125 0.023034375 2.58934499501e-05
240 1 -0.027759375 -0.00125 0.024215625 1.60961626734e-18
241 1 -0.026578125 -0.00125 -0.026578125 9.54716572118e-06
242 1 -0.026578125 -0.00125 -0.025396875 5.35492471924e-06
243 1 -0.026578125 -0.00125 -0.024215625 4.12248085208e-06
244 1 -0.026578125 -0.00125 -0.023034375 0.000170488864128
245 1 -0.026578125 -0.00125 -0.021853125 0.00616179533794
246 1 -0.026578125 -0.00125 -0.020671875 0.0158741803363
247 1 -0.026578125 -0.00125 -0.019490625 0.0424426472584
248 1 -0.026578125 -0.00125 -0.018309375 0.0740468861539
249 1 -0.026578125 -0.00125 -0.017128125 0.101918579389
250 1 -0.026578125 -0.00125 -0.015946875 0.106816768778
251 1 -0.026578125 -0.00125 -0.014765625 0.0633155504675
252 1 -0.026578125 -0.00125 -0.013584375 0.0319742454596
253 1 -0.026578125 -0.00125 -0.012403125 0.0136475289899
254 1 -0.026578125 -0.00125 -0.011221875 0.0301980392738
255 1 -0.026578125 -0.00125 -0.010040625 0.0261392828538
256 1 -0.026578125 -0.00125 -0.008859375 0.050096694263
257 1 -0.026578125 -0.00125 -0.007678125 0.0780180250452
258 1 -0.026578125 -0.00125 -0.006496875 0.0478528200402
259 1 -0.026578125 -0.00125 -0.005315625 0.0435684715853
260 1 -0.026578125 -0.00125 -0.004134375 0.0559491099419
261 1 -0.026578125 -0.00125 -0.002953125 0.0685181961635
262 1 -0.026578125 -0.00125 -0.001771875 0.110048797778
263 1 -0.026578125 -0.00125 -0.000590625 0.121325539686
264 1 -0.026578125 -0.00125 0.000590625 0.123725186349
265 1 -0.026578125 -0.00125 0.001771875 0.0866648832537
266 1 -0.026578125 -0.00125 0.002953125 0.118598054801
267 1 -0.026578125 -0.00125 0.004134375 0.10979155879
268 1 -0.026578125 -0.00125 0.005315625 0.107948674117
269 1 -0.026578125 -0.00125 0.006496875 0.0649857092496
270 1 -0.026578125 -0.00125 0.007678125 0.0540593403316
271 1 -0.026578125 -0.00125 0.008859375 0.088832721508
272 1 -0.026578125 -0.00125 0.010040625 0.0819644703239
273 1 -0.026578125 -0.00125 0.011221875 0.0829152231253
274 1 -0.026578125 -0.00125 0.012403125 0.0327944289479
275 1 -0.026578125 -0.00125 0.013584375 0.0268986426715
276 1 -0.026578125 -0.00125 0.014765625 0.0187454991435
277 1 -0.026578125 -0.00125 0.015946875 0.0051626658196
278 1 -0.026578125 -0.00125 0.017128125 0.00601346248373
279 1 -0.026578125 -0.00125 0.018309375 0.00240638492358
280 1 -0.026578125 -0.00125 0.019490625 0.00089652665543
281 1 -0.026578125 -0.00125 0.020671875 0.000135575050294
282 1 -0.026578125 -0.00125 0.021853125 1.57381922769e-06
283 1 -0.026578125 -0.00125 0.023034375 1.08832625745e-09
284 1 -0.026578125 -0.00125 0.024215625 4.85288828217e-14
285 1 -0.026578125 -0.00125 0.025396875 6.37289708759e-19
286 1 -0.026578125 -0.00125 0.026578125 7.76547303032e-16
287 1 -0.025396875 -0.00125 -0.026578125 1.86800922425e-07
288 1 -0.025396875 -0.00125 -0.025396875 0.000124196967094
289 1 -0.025396875 -0.00125 -0.024215625 0.00138374071645
290 1 -0.025396875 -0.00125 -0.023034375 0.00346734036095
291 1 -0.025396875 -0.00125 -0.021853125 0.012538374849
292 1 -0.025396875 -0.00125 -0.020671875 0.0382135930927
293 1 -0.025396875 -0.00125 -0.019490625 0.0713125689273
294 1 -0.025396875 -0.00125 -0.018309375 0.119276773343
295 1 -0.025396875 -0.00125 -0.017128125 0.168242599273
296 1 -0.025396875 -0.00125 -0.015946875 0.152090131682
297 1 -0.025396875 -0.00125 -0.014765625 0.143028008829
298 1 -0.025396875 -0.00125 -0.013584375 0.0617738233927
299 1 -0.025396875 -0.00125 -0.012403125 0.0657356816619
300 1 -0.025396875 -0.00125 -0.011221875 0.103280222423
301 1 -0.025396875 -0.00125 -0.010040625 0.103025717486
302 1 -0.025396875 -0.00125 -0.008859375 0.155583389774
303 1 -0.025396875 -0.00125 -0.007678125 0.120711484579
304 1 -0.025396875 -0.00125 -0.006496875 0.125580032681
305 1 -0.025396875 -0.00125 -0.005315625 0.0999662081146
306 1 -0.025396875 -0.00125 -0.004134375 0.0981957565734
307 1 -0.025396875 -0.00125 -0.002953125 0.109505411501
308 1 -0.025396875 -0.00125 -0.001771875 0.142703796955
309 1 -0.025396875 -0.00125 -0.000590625 0.124944342082
310 1 -0.025396875 -0.00125 0.000590625 0.114608753458
311 1 -0.025396875 -0.00125 0.001771875 0.0779534233639
312 1 -0.025396875 -0.00125 0.002953125 0.115805914077
313 1 -0.025396875 -0.00125 0.004134375 0.145182225119
314 1 -0.025396875 -0.00125 0.005315625 0.208914873904
315 1 -0.025396875 -0.00125 0.006496875 0.218350313506
316 1 -0.025396875 -0.00125 0.007678125 0.174093518261
317 1 -0.025396875 -0.00125 0.008859375 0.163649107488
318 1 -0.025396875 -0.00125 0.010040625 0.139559684557
319 1 -0.025396875 -0.00125 0.011221875 0.0924013163916
320 1 -0.025396875 -0.00125 0.012403125 0.0438158792302
321 1 -0.025396875 -0.00125 0.013584375 0.0433159375217
322 1 -0.025396875 -0.00125 0.014765625 0.0140677025171
323 1 -0.025396875 -0.00125 0.015946875 0.00861200555083
324 1 -0.025396875 -0.00125 0.017128125 0.00848887484353
325 1 -0.025396875 -0.00125 0.018309375 0.00452070221751
326 1 -0.025396875 -0.00125 0.019490625 0.00143788752443
327 1 -0.025396875 -0.00125 0.020671875 0.00158234654113
328 1 -0.025396875 -0.00125 0.021853125 0.000119874743156
329 1 -0.025396875 -0.00125 0.023034375 3.79284999425e-05
330 1 -0.025396875 -0.00125 0.024215625 6.30360907938e-08
331 1 -0.025396875 -0.00125 0.025396875 7.94866454048e-10
332 1 -0.025396875 -0.00125 0.026578125 1.80677756189e-30
333 1 -0.024215625 -0.00125 -0.027759375 0.0001007347306
334 1 -0.024215625 -0.00125 -0.026578125 0.00169528817388
335 1 -0.024215625 -0.00125 -0.025396875 0.00375600700863
336 1 -0.024215625 -0.00125 -0.024215625 0.0113089091765
337 1 -0.024215625 -0.00125 -0.023034375 0.0192232981468
338 1 -0.024215625 -0.00125 -0.021853125 0.035760016728
339 1 -0.024215625 -0.00125 -0.020671875 0.0923490006409
340 1 -0.024215625 -0.00125 -0.019490625 0.17616699922
341 1 -0.024215625 -0.00125 -0.018309375 0.167030700442
342 1 -0.024215625 -0.00125 -0.017128125 0.255773304999
343 1 -0.024215625 -0.00125 -0.015946875 0.260066551943
344 1 -0.024215625 -0.00125 -0.014765625 0.218438965046
345 1 -0.024215625 -0.00125 -0.013584375 0.161080727934
346 1 -0.024215625 -0.00125 -0.012403125 0.107785163085
347 1 -0.024215625 -0.00125 -0.011221875 0.14221279291
348 1 -0.024215625 -0.00125 -0.010040625 0.131826032203
349 1 -0.024215625 -0.00125 -0.008859375 0.139364319439
350 1 -0.024215625 -0.00125 -0.007678125 0.146161074287
351 1 -0.024215625 -0.00125 -0.006496875 0.170558279275
352 1 -0.024215625 -0.00125 -0.005315625 0.151638331122
353 1 -0.024215625 -0.00125 -0.004134375 0.186893469056
354 1 -0.024215625 -0.00125 -0.002953125 0.197605355608
355 1 -0.024215625 -0.00125 -0.001771875 0.189843311312
356 1 -0.024215625 -0.00125 -0.000590625 0.0972407735362
357 1 -0.024215625 -0.00125 0.000590625 0.125665193652
358 1 -0.024215625 -0.00125 0.001771875 0.123004896233
359 1 -0.024215625 -0.00125 0.002953125 0.126982495639
360 1 -0.024215625 -0.00125 0.004134375 0.219845519732
361 1 -0.024215625 -0.00125 0.005315625 0.236535079352
362 1 -0.024215625 -0.00125 0.006496875 0.221616358895
363 1 -0.024215625 -0.00125 0.007678125 0.230928737007
364 1 -0.024215625 -0.00125 0.008859375 0.194726433548
365 1 -0.024215625 -0.00125 0.010040625 0.163922779779
366 1 -0.024215625 -0.00125 0.011221875 0.108693238452
367 1 -0.024215625 -0.00125 0.012403125 0.120655405443
368 1 -0.024215625 -0.00125 0.013584375 0.0716389607739
369 1 -0.024215625 -0.00125 0.014765625 0.0382968613069
370 1 -0.024215625 -0.00125 0.015946875 0.0196361875471
371 1 -0.024215625 -0.00125 0.017128125 0.0123132056185
372 1 -0.024215625 -0.00125 0.018309375 0.00651730677936
373 1 -0.024215625 -0.00125 0.019490625 0.00128184353486
374 1 -0.024215625 -0.00125 0.020671875 0.00337677317869
375 1 -0.024215625 -0.00125 0.021853125 0.00310029071177
376 1 -0.024215625 -0.00125 0.023034375 0.000610078190068
377 1 -0.024215625 -0.00125 0.024215625 1.7801469232e-05
378 1 -0.024215625 -0.00125 0.025396875 3.83799445518e-05
379 1 -0.024215625 -0.00125 0.026578125 1.57421317364e-07
380 1 -0.024215625 -0.00125 0.027759375 1.47428385684e-11
381 1 -0.023034375 -0.00125 -0.027759375 0.0031223710871
382 1 -0.023034375 -0.00125 -0.026578125 0.0158274524758
383 1 -0.023034375 -0.00125 -0.025396875 0.0241992639652
384 1 -0.023034375 -0.00125 -0.024215625 0.0232496105101
385 1 -0.023034375 -0.00125 -0.023034375 0.0349968120911
386 1 -0.023034375 -0.00125 -0.021853125 0.0628758138687
387 1 -0.023034375 -0.00125 -0.020671875 0.112016538718
388 1 -0.023034375 -0.00125 -0.019490625 0.218029600912
389 1 -0.023034375 -0.00125 -0.018309375 0.264804673436
390 1 -0.023034375 -0.00125 -0.017128125 0.304987752489
391 1 -0.023034375 -0.00125 -0.015946875 0.318405035074
392 1 -0.023034375 -0.00125 -0.014765625 0.267550141417
393 1 -0.023034375 -0.00125 -0.013584375 0.230819862928
394 1 -0.023034375 -0.00125 -0.012403125 0.207153377126
395 1 -0.023034375 -0.00125 -0.011221875 0.169808205584
396 1 -0.023034375 -0.00125 -0.010040625 0.159568079184
397 1 -0.023034375 -0.00125 -0.008859375 0.197437642223
398 1 -0.023034375 -0.00125 -0.007678125 0.157353627869
399 1 -0.023034375 -0.00125 -0.006496875 0.129934995454
400 1 -0.023034375 -0.00125 -0.005315625 0.143523737823
401 1 -0.023034375 -0.00125 -0.004134375 0.155487314297
402 1 -0.023034375 -0.00125 -0.002953125 0.215197757669
403 1 -0.023034375 -0.00125 -0.001771875 0.127942250729
404 1 -0.023034375 -0.00125 -0.000590625 0.105748012065
405 1 -0.023034375 -0.00125 0.000590625 0.187705486947
406 1 -0.023034375 -0.00125 0.001771875 0.223286996074
407 1 -0.023034375 -0.00125 0.002953125 0.268834079025
408 1 -0.023034375 -0.00125 0.004134375 0.276390131121
409 1 -0.023034375 -0.00125 0.005315625 0.311020829823
410 1 -0.023034375 -0.00125 0.006496875 0.263632553864
411 1 -0.023034375 -0.00125 0.007678125 0.267129224879
412 1 -0.023034375 -0.00125 0.008859375 0.278399902604
413 1 -0.023034375 -0.00125 0.010040625 0.194623819534
414 1 -0.023034375 -0.00125 0.011221875 0.127781990048
415 1 -0.023034375 -0.00125 0.012403125 0.119605375476
416 1 -0.023034375 -0.00125 0.013584375 0.0862082632782
417 1 -0.023034375 -0.00125 0.014765625 0.0640946062108
418 1 -0.023034375 -0.00125 0.015946875 0.058592888695
419 1 -0.023034375 -0.00125 0.017128125 0.0244013906958
420 1 -0.023034375 -0.00125 0.018309375 0.0245445629102
421 1 -0.023034375 -0.00125 0.019490625 0.0206013229748
422 1 -0.023034375 -0.00125 0.020671875 0.0353396605908
423 1 -0.023034375 -0.00125 0.021853125 0.0162625649017
424 1 -0.023034375 -0.00125 0.023034375 0.000969432941169
425 1 -0.023034375 -0.00125 0.024215625 0.00247795456881
426 1 -0.023034375 -0.00125 0.025396875 0.00160237369427
427 1 -0.023034375 -0.00125 0.026578125 0.000284088572374
428 1 -0.023034375 -0.00125 0.027759375 0.00636619372929
429 1 -0.021853125 -0.00125 -0.028940625 0.0742488364797
430 1 -0.021853125 -0.00125 -0.027759375 0.0949302364671
431 1 -0.021853125 -0.00125 -0.026578125 0.0411813543321
432 1 -0.021853125 -0.00125 -0.025396875 0.0479230515219
433 1 -0.021853125 -0.00125 -0.024215625 0.061170238885
434 1 -0.021853125 -0.00125 -0.023034375 0.0518254472747
435 1 -0.021853125 -0.00125 -0.021853125 0.086839249869
436 1 -0.021853125 -0.00125 -0.020671875 0.176788445862
437 1 -0.021853125 -0.00125 -0.019490625 0.242703806949
438 1 -0.021853125 -0.00125 -0.018309375 0.335160615983
439 1 -0.021853125 -0.00125 -0.017128125 0.383790099757
440 1 -0.021853125 -0.00125 -0.015946875 0.393217250452
441 1 -0.021853125 -0.00125 -0.014765625 0.358314854903
442 1 -0.021853125 -0.00125 -0.013584375 0.264499295853
443 1 -0.021853125 -0.00125 -0.012403125 0.167359918543
444 1 -0.021853125 -0.00125 -0.011221875 0.171549772671
445 1 -0.021853125 -0.00125 -0.010040625 0.206907045303
446 1 -0.021853125 -0.00125 -0.008859375 0.173473555569
447 1 -0.021853125 -0.00125 -0.007678125 0.160491739391
448 1 -0.021853125 -0.00125 -0.006496875 0.115331870299
449 1 -0.021853125 -0.00125 -0.005315625 0.119353195042
450 1 -0.021853125 -0.00125 -0.004134375 0.185226737888
451 1 -0.021853125 -0.00125 -0.002953125 0.205441420304
452 1 -0.021853125 -0.00125 -0.001771875 0.145800071811
453 1 -0.021853125 -0.00125 -0.000590625 0.134766087142
454 1 -0.021853125 -0.00125 0.000590625 0.157612764943
455 1 -0.021853125 -0.00125 0.001771875 0.265301386712
456 1 -0.021853125 -0.00125 0.002953125 0.308503835781
457 1 -0.021853125 -0.00125 0.004134375 0.294772924653
458 1 -0.021853125 -0.00125 0.005315625 0.295510629623
459 1 -0.021853125 -0.00125 0.006496875 0.2762595134
460 1 -0.021853125 -0.00125 0.007678125 0.283668108278
461 1 -0.021853125 -0.00125 0.008859375 0.285631197796
462 1 -0.021853125 -0.00125 0.010040625 0.241244346726
463 1 -0.021853125 -0.00125 0.011221875 0.160235530939
464 1 -0.021853125 -0.00125 0.012403125 0.144898144159
465 1 -0.021853125 -0.00125 0.013584375 0.145179486127
466 1 -0.021853125 -0.00125 0.014765625 0.111831381658
467 1 -0.021853125 -0.00125 0.015946875 0.115174285626
468 1 -0.021853125 -0.00125 0.017128125 0.0718050796033
469 1 -0.021853125 -0.00125 0.018309375 0.0406896745331
470 1 -0.021853125 -0.00125 0.019490625 0.0768005170741
471 1 -0.021853125 -0.00125 0.020671875 0.0540381827777
472 1 -0.021853125 -0.00125 0.021853125 0.0271655273134
473 1 -0.021853125 -0.00125 0.023034375 0.00999722193915
474 1 -0.021853125 -0.00125 0.024215625 0.0135535318885
475 1 -0.021853125 -0.00125 0.025396875 0.011321274507
476 1 -0.021853125 -0.00125 0.026578125 0.0318897816387
477 1 -0.021853125 -0.00125 0.027759375 0.0635117618221
478 1 -0.021853125 -0.00125 0.028940625 0.0188927398131
479 1 -0.020671875 -0.00125 -0.030121875 0.0211462173128
480 1 -0.020671875 -0.00125 -0.028940625 0.028360681765
481 1 -0.020671875 -0.00125 -0.027759375 0.0769100095201
482 1 -0.020671875 -0.00125 -0.026578125 0.085499153617
483 1 -0.020671875 -0.00125 -0.025396875 0.0833277825289
484 1 -0.020671875 -0.00125 -0.024215625 0.0658561018966
485 1 -0.020671875 -0.00125 -0.023034375 0.0966585234874
486 1 -0.020671875 -0.00125 -0.021853125 0.132924998471
487 1 -0.020671875 -0.00125 -0.020671875 0.202132511879
488 1 -0.020671875 -0.00125 -0.019490625 0.27372049562
489 1 -0.020671875 -0.00125 -0.018309375 0.33138658403
490 1 -0.020671875 -0.00125 -0.017128125 0.397279529245
491 1 -0.020671875 -0.00125 -0.015946875 0.413769042669
492 1 -0.020671875 -0.00125 -0.014765625 0.401270661109
493 1 -0.020671875 -0.00125 -0.013584375 0.334873866532
494 1 -0.020671875 -0.00125 -0.012403125 0.247752141989
495 1 -0.020671875 -0.00125 -0.011221875 0.251878881577
496 1 -0.020671875 -0.00125 -0.010040625 0.27459898935
497 1 -0.020671875 -0.00125 -0.008859375 0.154931933583
498 1 -0.020671875 -0.00125 -0.007678125 0.0944250796051
499 1 -0.020671875 -0.00125 -0.006496875 0.0868488963986
500 1 -0.020671875 -0.00125 -0.005315625 0.127927642765
501 1 -0.020671875 -0.00125 -0.004134375 0.148546641845
502 1 -0.020671875 -0.00125 -0.002953125 0.200902840535
503 1 -0.020671875 -0.00125 -0.001771875 0.160807983438
504 1 -0.020671875 -0.00125 -0.000590625 0.197073172989
505 1 -0.020671875 -0.00125 0.000590625 0.157122754881
506 1 -0.020671875 -0.00125 0.001771875 0.289661023282
507 1 -0.020671875 -0.00125 0.002953125 0.370405161604
508 1 -0.020671875 -0.00125 0.004134375 0.29076099404
509 1 -0.020671875 -0.00125 0.005315625 0.386673873097
510 1 -0.020671875 -0.00125 0.006496875 0.337523881253
511 1 -0.020671875 -0.00125 0.007678125 0.29713383113
512 1 -0.020671875 -0.00125 0.008859375 0.303539556647
513 1 -0.020671875 -0.00125 0.010040625 0.259160563512
514 1 -0.020671875 -0.00125 0.011221875 0.231048940741
515 1 -0.020671875 -0.00125 0.012403125 0.150917073197
516 1 -0.020671875 -0.00125 0.013584375 0.140532755845
517 1 -0.020671875 -0.00125 0.014765625 0.111610802998
518 1 -0.020671875 -0.00125 0.015946875 0.114176032779
519 1 -0.020671875 -0.00125 0.017128125 0.0871882773986
520 1 -0.020671875 -0.00125 0.018309375 0.0685216845207
521 1 -0.020671875 -0.00125 0.019490625 0.0819808259778
522 1 -0.020671875 -0.00125 0.020671875 0.0339007059319
523 1 -0.020671875 -0.00125 0.021853125 0.000893874213676
524 1 -0.020671875 -0.00125 0.023034375 0.00164860335163
525 1 -0.020671875 -0.00125 0.024215625 0.00120332911311
526 1 -0.020671875 -0.00125 0.025396875 6.06157933925e-05
527 1 -0.020671875 -0.00125 0.026578125 0.00257540774587