ITEM: TIMESTEP
0
ITEM: NUMBER OF ATOMS
3080
ITEM: BOX BOUNDS ss ss ss
-3.7007399999999996e-02 3.7007399999999996e-02
-2.0002499999999999e-03 2.5000000000000004e-07
-3.7007399999999996e-02 3.7007399999999996e-02
ITEM: ATOMS id type x y z c_1
0 1 -0.037209375 -0.00125 -0.000590625 0.159068252398
1 1 -0.036028125 -0.00125 -0.007678125 0.0422036873291
2 1 -0.036028125 -0.00125 -0.006496875 0.0105572136893
3 1 -0.036028125 -0.00125 -0.005315625 0.00260819743211
4 1 -0.036028125 -0.00125 -0.004134375 0.0226014192339
5 1 -0.036028125 -0.00125 -0.002953125 0.0991284450541
6 1 -0.036028125 -0.00125 -0.001771875 0.0649617256052
7 1 -0.036028125 -0.00125 -0.000590625 0.029703190903
8 1 -0.036028125 -0.00125 0.000590625 0.0361035535496
9 1 -0.036028125 -0.00125 0.001771875 0.106961003979
10 1 -0.036028125 -0.00125 0.002953125 0.131258426378
11 1 -0.036028125 -0.00125 0.004134375 0.148233876075
12 1 -0.036028125 -0.00125 0.005315625 0.0309029975369
13 1 -0.036028125 -0.00125 0.006496875 0.00363426851946
14 1 -0.036028125 -0.00125 0.007678125 0.0112916780788
15 1 -0.034846875 -0.00125 -0.011221875 0.0200087162725
16 1 -0.034846875 -0.00125 -0.010040625 0.0452206800604
17 1 -0.034846875 -0.00125 -0.008859375 0.217490585283
18 1 -0.034846875 -0.00125 -0.007678125 0.053311067569
19 1 -0.034846875 -0.00125 -0.006496875 0.0390267824639
20 1 -0.034846875 -0.00125 -0.005315625 0.0276625496283
21 1 -0.034846875 -0.00125 -0.004134375 0.0568160828512
22 1 -0.034846875 -0.00125 -0.002953125 0.176403247717
23 1 -0.034846875 -0.00125 -0.001771875 0.0509065280016
24 1 -0.034846875 -0.00125 -0.000590625 0.0753930288528
25 1 -0.034846875 -0.00125 0.000590625 0.183355241776
26 1 -0.034846875 -0.00125 0.001771875 0.259553952288
27 1 -0.034846875 -0.00125 0.002953125 0.260014016783
28 1 -0.034846875 -0.00125 0.004134375 0.171975116841
29 1 -0.034846875 -0.00125 0.005315625 0.0130472052564
30 1 -0.034846875 -0.00125 0.006496875 0.00130002617794
31 1 -0.034846875 -0.00125 0.007678125 0.0478915063404
32 1 -0.034846875 -0.00125 0.008859375 0.278366952569
33 1 -0.034846875 -0.00125 0.010040625 0.129578024059
34 1 -0.034846875 -0.00125 0.011221875 0.147726017161
35 1 -0.033665625 -0.00125 -0.013584375 0.01429333851
36 1 -0.033665625 -0.00125 -0.012403125 0.0949874805264
37 1 -0.033665625 -0.00125 -0.011221875 0.0803276128748
38 1 -0.033665625 -0.00125 -0.010040625 0.112483575967
39 1 -0.033665625 -0.00125 -0.008859375 0.223131524784
40 1 -0.033665625 -0.00125 -0.007678125 0.139726187011
41 1 -0.033665625 -0.00125 -0.006496875 0.183742408789
42 1 -0.033665625 -0.00125 -0.005315625 0.199542041247
43 1 -0.033665625 -0.00125 -0.004134375 0.274197534135
44 1 -0.033665625 -0.00125 -0.002953125 0.235359746544
45 1 -0.033665625 -0.00125 -0.001771875 0.18396817407
46 1 -0.033665625 -0.00125 -0.000590625 0.132932501683
47 1 -0.033665625 -0.00125 0.000590625 0.195501990293
48 1 -0.033665625 -0.00125 0.001771875 0.349258322734
49 1 -0.033665625 -0.00125 0.002953125 0.371474942669
50 1 -0.033665625 -0.00125 0.004134375 0.367890251212
51 1 -0.033665625 -0.00125 0.005315625 0.127437584615
52 1 -0.033665625 -0.00125 0.006496875 0.0223652933288
53 1 -0.033665625 -0.00125 0.007678125 0.184169903415
54 1 -0.033665625 -0.00125 0.008859375 0.401959964799
55 1 -0.033665625 -0.00125 0.010040625 0.311287722687
56 1 -0.033665625 -0.00125 0.011221875 0.32021415357
57 1 -0.033665625 -0.00125 0.012403125 0.215495796933
58 1 -0.033665625 -0.00125 0.013584375 0.0865860312369
59 1 -0.032484375 -0.00125 -0.018309375 1.94692905418e-05
60 1 -0.032484375 -0.00125 -0.017128125 0.00136970623076
61 1 -0.032484375 -0.00125 -0.015946875 0.000191704031826
62 1 -0.032484375 -0.00125 -0.014765625 0.00461950936942
63 1 -0.032484375 -0.00125 -0.013584375 0.0192328760418
64 1 -0.032484375 -0.00125 -0.012403125 0.0632437828824
65 1 -0.032484375 -0.00125 -0.011221875 0.12718626332
66 1 -0.032484375 -0.00125 -0.010040625 0.13752079769
67 1 -0.032484375 -0.00125 -0.008859375 0.296860810956
68 1 -0.032484375 -0.00125 -0.007678125 0.341039374726
69 1 -0.032484375 -0.00125 -0.006496875 0.44101511241
70 1 -0.032484375 -0.00125 -0.005315625 0.471375418454
71 1 -0.032484375 -0.00125 -0.004134375 0.505863562908
72 1 -0.032484375 -0.00125 -0.002953125 0.515679671996
73 1 -0.032484375 -0.00125 -0.001771875 0.331594982013
74 1 -0.032484375 -0.00125 -0.000590625 0.325924217371
75 1 -0.032484375 -0.00125 0.000590625 0.45878932687
76 1 -0.032484375 -0.00125 0.001771875 0.591717070989
77 1 -0.032484375 -0.00125 0.002953125 0.596782634399
78 1 -0.032484375 -0.00125 0.004134375 0.485166151883
79 1 -0.032484375 -0.00125 0.005315625 0.423416098472
80 1 -0.032484375 -0.00125 0.006496875 0.311288466266
81 1 -0.032484375 -0.00125 0.007678125 0.425336980667
82 1 -0.032484375 -0.00125 0.008859375 0.422326444244
83 1 -0.032484375 -0.00125 0.010040625 0.335733814126
84 1 -0.032484375 -0.00125 0.011221875 0.381757226425
85 1 -0.032484375 -0.00125 0.012403125 0.316158674005
86 1 -0.032484375 -0.00125 0.013584375 0.20193604863
87 1 -0.032484375 -0.00125 0.014765625 0.187937409273
88 1 -0.032484375 -0.00125 0.015946875 0.150154501992
89 1 -0.032484375 -0.00125 0.017128125 0.134712517921
90 1 -0.032484375 -0.00125 0.018309375 0.126207685974
91 1 -0.031303125 -0.00125 -0.019490625 4.94438373679e-05
92 1 -0.031303125 -0.00125 -0.018309375 0.00288721021643
93 1 -0.031303125 -0.00125 -0.017128125 0.00282669435797
94 1 -0.031303125 -0.00125 -0.015946875 0.00684408329485
95 1 -0.031303125 -0.00125 -0.014765625 0.00477125374999
96 1 -0.031303125 -0.00125 -0.013584375 0.00568797589975
97 1 -0.031303125 -0.00125 -0.012403125 0.063794421898
98 1 -0.031303125 -0.00125 -0.011221875 0.0980637466
99 1 -0.031303125 -0.00125 -0.010040625 0.143931647479
100 1 -0.031303125 -0.00125 -0.008859375 0.268231244632
101 1 -0.031303125 -0.00125 -0.007678125 0.441790152461
102 1 -0.031303125 -0.00125 -0.006496875 0.507254294743
103 1 -0.031303125 -0.00125 -0.005315625 0.612739891423
104 1 -0.031303125 -0.00125 -0.004134375 0.550984643564
105 1 -0.031303125 -0.00125 -0.002953125 0.546699758919
106 1 -0.031303125 -0.00125 -0.001771875 0.455377957666
107 1 -0.031303125 -0.00125 -0.000590625 0.429214696629
108 1 -0.031303125 -0.00125 0.000590625 0.489307918118
109 1 -0.031303125 -0.00125 0.001771875 0.592194756786
110 1 -0.031303125 -0.00125 0.002953125 0.567563863661
111 1 -0.031303125 -0.00125 0.004134375 0.452278659908
112 1 -0.031303125 -0.00125 0.005315625 0.49375172475
113 1 -0.031303125 -0.00125 0.006496875 0.567340401477
114 1 -0.031303125 -0.00125 0.007678125 0.535402464473
115 1 -0.031303125 -0.00125 0.008859375 0.423588012259
116 1 -0.031303125 -0.00125 0.010040625 0.472133933047
117 1 -0.031303125 -0.00125 0.011221875 0.462894995505
118 1 -0.031303125 -0.00125 0.012403125 0.482971962779
119 1 -0.031303125 -0.00125 0.013584375 0.376414466112
120 1 -0.031303125 -0.00125 0.014765625 0.269072189164
121 1 -0.031303125 -0.00125 0.015946875 0.197677157885
122 1 -0.031303125 -0.00125 0.017128125 0.19401826028
123 1 -0.031303125 -0.00125 0.018309375 0.184339492978
124 1 -0.031303125 -0.00125 0.019490625 0.041798587878
125 1 -0.030121875 -0.00125 -0.020671875 1.22269132146e-10
126 1 -0.030121875 -0.00125 -0.019490625 6.55600580171e-06
127 1 -0.030121875 -0.00125 -0.018309375 0.000990645555027
128 1 -0.030121875 -0.00125 -0.017128125 0.00618790217148
129 1 -0.030121875 -0.00125 -0.015946875 0.00422648429845
130 1 -0.030121875 -0.00125 -0.014765625 0.0110183493958
131 1 -0.030121875 -0.00125 -0.013584375 0.0127864699922
132 1 -0.030121875 -0.00125 -0.012403125 0.133885730769
133 1 -0.030121875 -0.00125 -0.011221875 0.230101519458
134 1 -0.030121875 -0.00125 -0.010040625 0.306409622956
135 1 -0.030121875 -0.00125 -0.008859375 0.312331005263
136 1 -0.030121875 -0.00125 -0.007678125 0.409904739949
137 1 -0.030121875 -0.00125 -0.006496875 0.604452275466
138 1 -0.030121875 -0.00125 -0.005315625 0.606717818565
139 1 -0.030121875 -0.00125 -0.004134375 0.607862888688
140 1 -0.030121875 -0.00125 -0.002953125 0.523131700413
141 1 -0.030121875 -0.00125 -0.001771875 0.472548557845
142 1 -0.030121875 -0.00125 -0.000590625 0.556145589651
143 1 -0.030121875 -0.00125 0.000590625 0.516260532195
144 1 -0.030121875 -0.00125 0.001771875 0.523327005525
145 1 -0.030121875 -0.00125 0.002953125 0.584572321691
146 1 -0.030121875 -0.00125 0.004134375 0.551199509124
147 1 -0.030121875 -0.00125 0.005315625 0.557247702716
148 1 -0.030121875 -0.00125 0.006496875 0.543048769422
149 1 -0.030121875 -0.00125 0.007678125 0.429056956962
150 1 -0.030121875 -0.00125 0.008859375 0.448039287411
151 1 -0.030121875 -0.00125 0.010040625 0.492914982431
152 1 -0.030121875 -0.00125 0.011221875 0.525362634646
153 1 -0.030121875 -0.00125 0.012403125 0.551698708244
154 1 -0.030121875 -0.00125 0.013584375 0.484440872416
155 1 -0.030121875 -0.00125 0.014765625 0.430626779244
156 1 -0.030121875 -0.00125 0.015946875 0.300131037266
157 1 -0.030121875 -0.00125 0.017128125 0.246024670883
158 1 -0.030121875 -0.00125 0.018309375 0.266102174876
159 1 -0.030121875 -0.00125 0.019490625 0.0768404223229
160 1 -0.030121875 -0.00125 0.020671875 0.0180640476008
161 1 -0.028940625 -0.00125 -0.021853125 0.00836361395294
162 1 -0.028940625 -0.00125 -0.020671875 0.00129305427797
163 1 -0.028940625 -0.00125 -0.019490625 7.88502861882e-05
164 1 -0.028940625 -0.00125 -0.018309375 0.00463640000441
165 1 -0.028940625 -0.00125 -0.017128125 0.0133925508112
166 1 -0.028940625 -0.00125 -0.015946875 0.0152023425231
167 1 -0.028940625 -0.00125 -0.014765625 0.0323502904354
168 1 -0.028940625 -0.00125 -0.013584375 0.0610781938733
169 1 -0.028940625 -0.00125 -0.012403125 0.137769122681
170 1 -0.028940625 -0.00125 -0.011221875 0.307059435146
171 1 -0.028940625 -0.00125 -0.010040625 0.421321282734
172 1 -0.028940625 -0.00125 -0.008859375 0.426078523261
173 1 -0.028940625 -0.00125 -0.007678125 0.387817636404
174 1 -0.028940625 -0.00125 -0.006496875 0.524917814872
175 1 -0.028940625 -0.00125 -0.005315625 0.537317488241
176 1 -0.028940625 -0.00125 -0.004134375 0.636920234064
177 1 -0.028940625 -0.00125 -0.002953125 0.534246651248
178 1 -0.028940625 -0.00125 -0.001771875 0.546329848875
179 1 -0.028940625 -0.00125 -0.000590625 0.593561530308
180 1 -0.028940625 -0.00125 0.000590625 0.645646091378
181 1 -0.028940625 -0.00125 0.001771875 0.551249878461
182 1 -0.028940625 -0.00125 0.002953125 0.600199947506
183 1 -0.028940625 -0.00125 0.004134375 0.497685827445
184 1 -0.028940625 -0.00125 0.005315625 0.487046036347
185 1 -0.028940625 -0.00125 0.006496875 0.428038721675
186 1 -0.028940625 -0.00125 0.007678125 0.367156296129
187 1 -0.028940625 -0.00125 0.008859375 0.393343510443
188 1 -0.028940625 -0.00125 0.010040625 0.480949204656
189 1 -0.028940625 -0.00125 0.011221875 0.563927017357
190 1 -0.028940625 -0.00125 0.012403125 0.509386644079
191 1 -0.028940625 -0.00125 0.013584375 0.516126177848
192 1 -0.028940625 -0.00125 0.014765625 0.483870264337
193 1 -0.028940625 -0.00125 0.015946875 0.450377344932
194 1 -0.028940625 -0.00125 0.017128125 0.376319369861
195 1 -0.028940625 -0.00125 0.018309375 0.290103200136
196 1 -0.028940625 -0.00125 0.019490625 0.148522519448
197 1 -0.028940625 -0.00125 0.020671875 0.07743662381
198 1 -0.028940625 -0.00125 0.021853125 0.189896723654
199 1 -0.027759375 -0.00125 -0.024215625 2.87523790938e-18
200 1 -0.027759375 -0.00125 -0.023034375 5.21328267684e-05
201 1 -0.027759375 -0.00125 -0.021853125 0.000814628038323
202 1 -0.027759375 -0.00125 -0.020671875 0.00109828852008
203 1 -0.027759375 -0.00125 -0.019490625 0.000803116406254
204 1 -0.027759375 -0.00125 -0.018309375 0.0419341334318
205 1 -0.027759375 -0.00125 -0.017128125 0.0536250855245
206 1 -0.027759375 -0.00125 -0.015946875 0.0205787776826
207 1 -0.027759375 -0.00125 -0.014765625 0.0503109387155
208 1 -0.027759375 -0.00125 -0.013584375 0.0848231337477
209 1 -0.027759375 -0.00125 -0.012403125 0.182749635974
210 1 -0.027759375 -0.00125 -0.011221875 0.334907198209
211 1 -0.027759375 -0.00125 -0.010040625 0.316165185213
212 1 -0.027759375 -0.00125 -0.008859375 0.368293342557
213 1 -0.027759375 -0.00125 -0.007678125 0.273684685858
214 1 -0.027759375 -0.00125 -0.006496875 0.489615294741
215 1 -0.027759375 -0.00125 -0.005315625 0.604383597907
216 1 -0.027759375 -0.00125 -0.004134375 0.526680896154
217 1 -0.027759375 -0.00125 -0.002953125 0.514311036432
218 1 -0.027759375 -0.00125 -0.001771875 0.623109345618
219 1 -0.027759375 -0.00125 -0.000590625 0.683419107737
220 1 -0.027759375 -0.00125 0.000590625 0.67080190385
221 1 -0.027759375 -0.00125 0.001771875 0.655422102678
222 1 -0.027759375 -0.00125 0.002953125 0.668028798938
223 1 -0.027759375 -0.00125 0.004134375 0.61127149571
224 1 -0.027759375 -0.00125 0.005315625 0.551767053153
225 1 -0.027759375 -0.00125 0.006496875 0.525042525453
226 1 -0.027759375 -0.00125 0.007678125 0.588761962029
227 1 -0.027759375 -0.00125 0.008859375 0.50427836829
228 1 -0.027759375 -0.00125 0.010040625 0.536718189387
229 1 -0.027759375 -0.00125 0.011221875 0.685772364123
230 1 -0.027759375 -0.00125 0.012403125 0.515939673413
231 1 -0.027759375 -0.00125 0.013584375 0.463643627768
232 1 -0.027759375 -0.00125 0.014765625 0.398563329594
233 1 -0.027759375 -0.00125 0.015946875 0.409242944909
234 1 -0.027759375 -0.00125 0.017128125 0.422025961826
235 1 -0.027759375 -0.00125 0.018309375 0.33161446132
236 1 -0.027759375 -0.00125 0.019490625 0.230041719294
237 1 -0.027759375 -0.00125 0.020671875 0.181884745284
238 1 -0.027759375 -0.00125 0.021853125 0.274348034007
239 1 -0.027759375 -0.00125 0.023034375 0.121061826741
240 1 -0.027759375 -0.00125 0.024215625 2.28531759471e-05
241 1 -0.026578125 -0.00125 -0.026578125 1.17641938122e-09
242 1 -0.026578125 -0.00125 -0.025396875 2.05690237851e-24
243 1 -0.026578125 -0.00125 -0.024215625 9.31976708995e-23
244 1 -0.026578125 -0.00125 -0.023034375 3.19011368642e-10
245 1 -0.026578125 -0.00125 -0.021853125 2.51694972125e-07
246 1 -0.026578125 -0.00125 -0.020671875 0.00021798462287
247 1 -0.026578125 -0.00125 -0.019490625 0.0109096031868
248 1 -0.026578125 -0.00125 -0.018309375 0.0721572857535
249 1 -0.026578125 -0.00125 -0.017128125 0.116382720442
250 1 -0.026578125 -0.00125 -0.015946875 0.0826063577033
251 1 -0.026578125 -0.00125 -0.014765625 0.154947700032
252 1 -0.026578125 -0.00125 -0.013584375 0.257469079612
253 1 -0.026578125 -0.00125 -0.012403125 0.392205876255
254 1 -0.026578125 -0.00125 -0.011221875 0.405796179967
255 1 -0.026578125 -0.00125 -0.010040625 0.381945262125
256 1 -0.026578125 -0.00125 -0.008859375 0.363187695053
257 1 -0.026578125 -0.00125 -0.007678125 0.340603103878
258 1 -0.026578125 -0.00125 -0.006496875 0.386388991151
259 1 -0.026578125 -0.00125 -0.005315625 0.60706567516
260 1 -0.026578125 -0.00125 -0.004134375 0.658826610593
261 1 -0.026578125 -0.00125 -0.002953125 0.584270364703
262 1 -0.026578125 -0.00125 -0.001771875 0.646188972691
263 1 -0.026578125 -0.00125 -0.000590625 0.807074439073
264 1 -0.026578125 -0.00125 0.000590625 0.789050727727
265 1 -0.026578125 -0.00125 0.001771875 0.732870407171
266 1 -0.026578125 -0.00125 0.002953125 0.668566862368
267 1 -0.026578125 -0.00125 0.004134375 0.645373008535
268 1 -0.026578125 -0.00125 0.005315625 0.632710327566
269 1 -0.026578125 -0.00125 0.006496875 0.753359974944
270 1 -0.026578125 -0.00125 0.007678125 0.709461614294
271 1 -0.026578125 -0.00125 0.008859375 0.704961679708
272 1 -0.026578125 -0.00125 0.010040625 0.758040620839
273 1 -0.026578125 -0.00125 0.011221875 0.741719264725
274 1 -0.026578125 -0.00125 0.012403125 0.692870763623
275 1 -0.026578125 -0.00125 0.013584375 0.637018350859
276 1 -0.026578125 -0.00125 0.014765625 0.527811342289
277 1 -0.026578125 -0.00125 0.015946875 0.441753921142
278 1 -0.026578125 -0.00125 0.017128125 0.349332822129
279 1 -0.026578125 -0.00125 0.018309375 0.325852546242
280 1 -0.026578125 -0.00125 0.019490625 0.316317921346
281 1 -0.026578125 -0.00125 0.020671875 0.198780592592
282 1 -0.026578125 -0.00125 0.021853125 0.112224066325
283 1 -0.026578125 -0.00125 0.023034375 0.0931321258697
284 1 -0.026578125 -0.00125 0.024215625 0.00955542163801
285 1 -0.026578125 -0.00125 0.025396875 8.81639323177e-05
286 1 -0.026578125 -0.00125 0.026578125 0.0121964407132
287 1 -0.025396875 -0.00125 -0.026578125 3.27241814765e-25
288 1 -0.025396875 -0.00125 -0.025396875 1.3713572874e-27
289 1 -0.025396875 -0.00125 -0.024215625 2.52954509301e-25
290 1 -0.025396875 -0.00125 -0.023034375 1.26019672418e-15
291 1 -0.025396875 -0.00125 -0.021853125 9.82051460961e-07
292 1 -0.025396875 -0.00125 -0.020671875 0.000610703374841
293 1 -0.025396875 -0.00125 -0.019490625 0.00544448076141
294 1 -0.025396875 -0.00125 -0.018309375 0.0774874928047
295 1 -0.025396875 -0.00125 -0.017128125 0.115316550741
296 1 -0.025396875 -0.00125 -0.015946875 0.109585318128
297 1 -0.025396875 -0.00125 -0.014765625 0.109860102775
298 1 -0.025396875 -0.00125 -0.013584375 0.298912168213
299 1 -0.025396875 -0.00125 -0.012403125 0.409177570689
300 1 -0.025396875 -0.00125 -0.011221875 0.331704635219
301 1 -0.025396875 -0.00125 -0.010040625 0.384218859668
302 1 -0.025396875 -0.00125 -0.008859375 0.439331865966
303 1 -0.025396875 -0.00125 -0.007678125 0.327349155356
304 1 -0.025396875 -0.00125 -0.006496875 0.386261868519
305 1 -0.025396875 -0.00125 -0.005315625 0.677910554016
306 1 -0.025396875 -0.00125 -0.004134375 0.686942169381
307 1 -0.025396875 -0.00125 -0.002953125 0.681351734706
308 1 -0.025396875 -0.00125 -0.001771875 0.778887227645
309 1 -0.025396875 -0.00125 -0.000590625 0.862789626852
310 1 -0.025396875 -0.00125 0.000590625 0.937799936683
311 1 -0.025396875 -0.00125 0.001771875 0.954124857315
312 1 -0.025396875 -0.00125 0.002953125 0.903473070979
313 1 -0.025396875 -0.00125 0.004134375 0.912354127234
314 1 -0.025396875 -0.00125 0.005315625 0.80323664262
315 1 -0.025396875 -0.00125 0.006496875 0.846146670266
316 1 -0.025396875 -0.00125 0.007678125 0.851440211464
317 1 -0.025396875 -0.00125 0.008859375 0.874478767898
318 1 -0.025396875 -0.00125 0.010040625 0.849440148262
319 1 -0.025396875 -0.00125 0.011221875 0.850896734446
320 1 -0.025396875 -0.00125 0.012403125 0.82398633348
321 1 -0.025396875 -0.00125 0.013584375 0.741381216853
322 1 -0.025396875 -0.00125 0.014765625 0.566410413337
323 1 -0.025396875 -0.00125 0.015946875 0.443217736313
324 1 -0.025396875 -0.00125 0.017128125 0.384371415172
325 1 -0.025396875 -0.00125 0.018309375 0.379859827823
326 1 -0.025396875 -0.00125 0.019490625 0.249981939001
327 1 -0.025396875 -0.00125 0.020671875 0.137986308908
328 1 -0.025396875 -0.00125 0.021853125 0.0504270486236
329 1 -0.025396875 -0.00125 0.023034375 0.0359430022221
330 1 -0.025396875 -0.00125 0.024215625 0.0248525930771
331 1 -0.025396875 -0.00125 0.025396875 0.00148115753195
332 1 -0.025396875 -0.00125 0.026578125 0.000284659206195
333 1 -0.024215625 -0.00125 -0.027759375 1.40031321176e-48
334 1 -0.024215625 -0.00125 -0.026578125 1.19395224418e-28
335 1 -0.024215625 -0.00125 -0.025396875 1.20724649802e-32
336 1 -0.024215625 -0.00125 -0.024215625 7.03874300706e-31
337 1 -0.024215625 -0.00125 -0.023034375 1.7151161766e-17
338 1 -0.024215625 -0.00125 -0.021853125 3.25198049465e-07
339 1 -0.024215625 -0.00125 -0.020671875 4.12047088849e-05
340 1 -0.024215625 -0.00125 -0.019490625 0.00164170356546
341 1 -0.024215625 -0.00125 -0.018309375 0.0223306174234
342 1 -0.024215625 -0.00125 -0.017128125 0.0541758167805
343 1 -0.024215625 -0.00125 -0.015946875 0.0726542140671
344 1 -0.024215625 -0.00125 -0.014765625 0.101399379311
345 1 -0.024215625 -0.00125 -0.013584375 0.183501143145
346 1 -0.024215625 -0.00125 -0.012403125 0.295678703877
347 1 -0.024215625 -0.00125 -0.011221875 0.319689205902
348 1 -0.024215625 -0.00125 -0.010040625 0.29789920271
349 1 -0.024215625 -0.00125 -0.008859375 0.275056232296
350 1 -0.024215625 -0.00125 -0.007678125 0.328783282642
351 1 -0.024215625 -0.00125 -0.006496875 0.450153912001
352 1 -0.024215625 -0.00125 -0.005315625 0.598888936633
353 1 -0.024215625 -0.00125 -0.004134375 0.703201949083
354 1 -0.024215625 -0.00125 -0.002953125 0.815708864227
355 1 -0.024215625 -0.00125 -0.001771875 0.892962309977
356 1 -0.024215625 -0.00125 -0.000590625 0.931731678402
357 1 -0.024215625 -0.00125 0.000590625 0.955679554226
358 1 -0.024215625 -0.00125 0.001771875 0.980741606905
359 1 -0.024215625 -0.00125 0.002953125 0.992364557385
360 1 -0.024215625 -0.00125 0.004134375 0.996010719465
361 1 -0.024215625 -0.00125 0.005315625 0.996477621437
362 1 -0.024215625 -0.00125 0.006496875 0.991217513495
363 1 -0.024215625 -0.00125 0.007678125 0.98308695426
364 1 -0.024215625 -0.00125 0.008859375 0.979846451855
365 1 -0.024215625 -0.00125 0.010040625 0.982010887041
366 1 -0.024215625 -0.00125 0.011221875 0.94809481456
367 1 -0.024215625 -0.00125 0.012403125 0.887205768673
368 1 -0.024215625 -0.00125 0.013584375 0.770174966261
369 1 -0.024215625 -0.00125 0.014765625 0.682985420824
370 1 -0.024215625 -0.00125 0.015946875 0.49747998902
371 1 -0.024215625 -0.00125 0.017128125 0.439861146997
372 1 -0.024215625 -0.00125 0.018309375 0.375893358316
373 1 -0.024215625 -0.00125 0.019490625 0.300476038775
374 1 -0.024215625 -0.00125 0.020671875 0.0665618830381
375 1 -0.024215625 -0.00125 0.021853125 0.00489226583727
376 1 -0.024215625 -0.00125 0.023034375 0.00924042157025
377 1 -0.024215625 -0.00125 0.024215625 0.0129752257487
378 1 -0.024215625 -0.00125 0.025396875 0.00341861761132
379 1 -0.024215625 -0.00125 0.026578125 0.000259993141539
380 1 -0.024215625 -0.00125 0.027759375 2.67388580896e-11
381 1 -0.023034375 -0.00125 -0.027759375 2.341145556e-20
382 1 -0.023034375 -0.00125 -0.026578125 7.15653214866e-17
383 1 -0.023034375 -0.00125 -0.025396875 6.91353632947e-30
384 1 -0.023034375 -0.00125 -0.024215625 7.23831483268e-50
385 1 -0.023034375 -0.00125 -0.023034375 4.60357546799e-31
386 1 -0.023034375 -0.00125 -0.021853125 8.54721528077e-13
387 1 -0.023034375 -0.00125 -0.020671875 1.94871896344e-07
388 1 -0.023034375 -0.00125 -0.019490625 0.0057322713741
389 1 -0.023034375 -0.00125 -0.018309375 0.0155665558288
390 1 -0.023034375 -0.00125 -0.017128125 0.0387703512622
391 1 -0.023034375 -0.00125 -0.015946875 0.0416402217704
392 1 -0.023034375 -0.00125 -0.014765625 0.100554020544
393 1 -0.023034375 -0.00125 -0.013584375 0.144473257802
394 1 -0.023034375 -0.00125 -0.012403125 0.192253205304
395 1 -0.023034375 -0.00125 -0.011221875 0.125218691065
396 1 -0.023034375 -0.00125 -0.010040625 0.117308462574
397 1 -0.023034375 -0.00125 -0.008859375 0.163659734916
398 1 -0.023034375 -0.00125 -0.007678125 0.159664385545
399 1 -0.023034375 -0.00125 -0.006496875 0.248048269921
400 1 -0.023034375 -0.00125 -0.005315625 0.538135121852
401 1 -0.023034375 -0.00125 -0.004134375 0.812409884423
402 1 -0.023034375 -0.00125 -0.002953125 0.886766089436
403 1 -0.023034375 -0.00125 -0.001771875 0.989444706038
404 1 -0.023034375 -0.00125 -0.000590625 0.995555288033
405 1 -0.023034375 -0.00125 0.000590625 0.999311698209
406 1 -0.023034375 -0.00125 0.001771875 0.999881417056
407 1 -0.023034375 -0.00125 0.002953125 0.999964102946
408 1 -0.023034375 -0.00125 0.004134375 0.999755774105
409 1 -0.023034375 -0.00125 0.005315625 0.999999684331
410 1 -0.023034375 -0.00125 0.006496875 0.999964214281
411 1 -0.023034375 -0.00125 0.007678125 0.999448874218
412 1 -0.023034375 -0.00125 0.008859375 0.998153548998
413 1 -0.023034375 -0.00125 0.010040625 0.998463261615
414 1 -0.023034375 -0.00125 0.011221875 0.96566774878
415 1 -0.023034375 -0.00125 0.012403125 0.899933494633
416 1 -0.023034375 -0.00125 0.013584375 0.691361311262
417 1 -0.023034375 -0.00125 0.014765625 0.491044366681
418 1 -0.023034375 -0.00125 0.015946875 0.396956947776
419 1 -0.023034375 -0.00125 0.017128125 0.279337487451
420 1 -0.023034375 -0.00125 0.018309375 0.338616859618
421 1 -0.023034375 -0.00125 0.019490625 0.135360574395
422 1 -0.023034375 -0.00125 0.020671875 0.0275433198939
423 1 -0.023034375 -0.00125 0.021853125 0.00447920688796
424 1 -0.023034375 -0.00125 0.023034375 0.0006789361413
425 1 -0.023034375 -0.00125 0.024215625 0.00526001665502
426 1 -0.023034375 -0.00125 0.025396875 0.00065434664943
427 1 -0.023034375 -0.00125 0.026578125 0.00229098263215
428 1 -0.023034375 -0.00125 0.027759375 0.00278857677484
429 1 -0.021853125 -0.00125 -0.028940625 7.70170316242e-40
430 1 -0.021853125 -0.00125 -0.027759375 3.49990941832e-19
431 1 -0.021853125 -0.00125 -0.026578125 3.36594262102e-44
432 1 -0.021853125 -0.00125 -0.025396875 1.30505079994e-90
433 1 -0.021853125 -0.00125 -0.024215625 8.63626296018e-29
434 1 -0.021853125 -0.00125 -0.023034375 1.23006837738e-15
435 1 -0.021853125 -0.00125 -0.021853125 2.18245570417e-15
436 1 -0.021853125 -0.00125 -0.020671875 1.26603421027e-06
437 1 -0.021853125 -0.00125 -0.019490625 0.00247045404869
438 1 -0.021853125 -0.00125 -0.018309375 0.00810886101795
439 1 -0.021853125 -0.00125 -0.017128125 0.0373340046621
440 1 -0.021853125 -0.00125 -0.015946875 0.055777009424
441 1 -0.021853125 -0.00125 -0.014765625 0.054779307843
442 1 -0.021853125 -0.00125 -0.013584375 0.0768227420045
443 1 -0.021853125 -0.00125 -0.012403125 0.0610517830613
444 1 -0.021853125 -0.00125 -0.011221875 0.0569676592489
445 1 -0.021853125 -0.00125 -0.010040625 0.0863165516484
446 1 -0.021853125 -0.00125 -0.008859375 0.101024096361
447 1 -0.021853125 -0.00125 -0.007678125 0.08483201313
448 1 -0.021853125 -0.00125 -0.006496875 0.252444741535
449 1 -0.021853125 -0.00125 -0.005315625 0.476632735033
450 1 -0.021853125 -0.00125 -0.004134375 0.773785357895
451 1 -0.021853125 -0.00125 -0.002953125 0.967947445727
452 1 -0.021853125 -0.00125 -0.001771875 0.996731323633
453 1 -0.021853125 -0.00125 -0.000590625 0.999898707932
454 1 -0.021853125 -0.00125 0.000590625 0.999999781073
455 1 -0.021853125 -0.00125 0.001771875 0.999999839761
456 1 -0.021853125 -0.00125 0.002953125 0.99999988094
457 1 -0.021853125 -0.00125 0.004134375 0.999999877078
458 1 -0.021853125 -0.00125 0.005315625 0.999999999448
459 1 -0.021853125 -0.00125 0.006496875 0.999999843818
460 1 -0.021853125 -0.00125 0.007678125 0.999995824195
461 1 -0.021853125 -0.00125 0.008859375 0.999878788986
462 1 -0.021853125 -0.00125 0.010040625 0.999604339783
463 1 -0.021853125 -0.00125 0.011221875 0.995160000313
464 1 -0.021853125 -0.00125 0.012403125 0.902446114631
465 1 -0.021853125 -0.00125 0.013584375 0.613073280876
466 1 -0.021853125 -0.00125 0.014765625 0.432581943738
467 1 -0.021853125 -0.00125 0.015946875 0.272810482946
468 1 -0.021853125 -0.00125 0.017128125 0.235507561154
469 1 -0.021853125 -0.00125 0.018309375 0.238516405865
470 1 -0.021853125 -0.00125 0.019490625 0.110327672874
471 1 -0.021853125 -0.00125 0.020671875 0.018932794418
472 1 -0.021853125 -0.00125 0.021853125 0.00209102719726
473 1 -0.021853125 -0.00125 0.023034375 0.00281770343783
474 1 -0.021853125 -0.00125 0.024215625 0.00105537347004
475 1 -0.021853125 -0.00125 0.025396875 0.00185562456748
476 1 -0.021853125 -0.00125 0.026578125 0.0173444020697
477 1 -0.021853125 -0.00125 0.027759375 0.0741720147996
478 1 -0.021853125 -0.00125 0.028940625 0.000418377632282
479 1 -0.020671875 -0.00125 -0.030121875 2.54752556036e-146
480 1 -0.020671875 -0.00125 -0.028940625 3.20660286835e-192
481 1 -0.020671875 -0.00125 -0.027759375 1.04376657688e-98
482 1 -0.020671875 -0.00125 -0.026578125 3.77301225693e-113
483 1 -0.020671875 -0.00125 -0.025396875 4.07428228878e-124
484 1 -0.020671875 -0.00125 -0.024215625 7.3653909807e-32
485 1 -0.020671875 -0.00125 -0.023034375 6.82119526746e-51
486 1 -0.020671875 -0.00125 -0.021853125 3.75990810189e-18
487 1 -0.020671875 -0.00125 -0.020671875 4.07735138478e-07
488 1 -0.020671875 -0.00125 -0.019490625 0.00963066430505
489 1 -0.020671875 -0.00125 -0.018309375 0.00812755038151
490 1 -0.020671875 -0.00125 -0.017128125 0.0230234115803
491 1 -0.020671875 -0.00125 -0.015946875 0.038235133061
492 1 -0.020671875 -0.00125 -0.014765625 0.0326624943025
493 1 -0.020671875 -0.00125 -0.013584375 0.0571695129143
494 1 -0.020671875 -0.00125 -0.012403125 0.0216407306348
495 1 -0.020671875 -0.00125 -0.011221875 0.0358534914747
496 1 -0.020671875 -0.00125 -0.010040625 0.0536087725721
497 1 -0.020671875 -0.00125 -0.008859375 0.0567417401827
498 1 -0.020671875 -0.00125 -0.007678125 0.048283824347
499 1 -0.020671875 -0.00125 -0.006496875 0.229080027159
500 1 -0.020671875 -0.00125 -0.005315625 0.461611480235
501 1 -0.020671875 -0.00125 -0.004134375 0.825008619069
502 1 -0.020671875 -0.00125 -0.002953125 0.982881047727
503 1 -0.020671875 -0.00125 -0.001771875 0.998534722871
504 1 -0.020671875 -0.00125 -0.000590625 0.999976309963
505 1 -0.020671875 -0.00125 0.000590625 0.999999996357
506 1 -0.020671875 -0.00125 0.001771875 0.999999994316
507 1 -0.020671875 -0.00125 0.002953125 1.0
508 1 -0.020671875 -0.00125 0.004134375 0.999999996469
509 1 -0.020671875 -0.00125 0.005315625 0.999999999999
510 1 -0.020671875 -0.00125 0.006496875 0.999999999994
511 1 -0.020671875 -0.00125 0.007678125 0.999999999556
512 1 -0.020671875 -0.00125 0.008859375 0.999952478575
513 1 -0.020671875 -0.00125 0.010040625 0.999868676349
514 1 -0.020671875 -0.00125 0.011221875 0.998676879605
515 1 -0.020671875 -0.00125 0.012403125 0.976992149334
516 1 -0.020671875 -0.00125 0.013584375 0.629699630676
517 1 -0.020671875 -0.00125 0.014765625 0.423859667516
518 1 -0.020671875 -0.00125 0.015946875 0.275918970712
519 1 -0.020671875 -0.00125 0.017128125 0.183923855993
520 1 -0.020671875 -0.00125 0.018309375 0.235586829966
521 1 -0.020671875 -0.00125 0.019490625 0.0963328109958
522 1 -0.020671875 -0.00125 0.020671875 0.0314683858717
523 1 -0.020671875 -0.00125 0.021853125 0.00842717177044
524 1 -0.020671875 -0.00125 0.023034375 0.0257796784647
525 1 -0.020671875 -0.00125 0.024215625 0.00187415405354
526 1 -0.020671875 -0.00125 0.025396875 0.00126080971568
527 1 -0.020671875 -0.00125 0.026578125 0.0049507537798
528 1 -0.020671875 -0.00125 0.027759375 0.0243806778523
529 1 -0.020671875 -0.00125 0.028940625 6.33661762537e-07
530 1 -0.020671875 -0.00125 0.030121875 7.11163661026e-14
531 1 -0.019490625 -0.00125 -0.031303125 1.33893231958e-74