ITEM: TIMESTEP
0
ITEM: NUMBER OF ATOMS
3080
ITEM: BOX BOUNDS ss ss ss
-3.7007399999999996e-02 3.7007399999999996e-02
-2.0002499999999999e-03 2.5000000000000004e-07
-3.7007399999999996e-02 3.7007399999999996e-02
ITEM: ATOMS id type x y z c_1
0 1 -0.037209375 -0.00125 -0.000590625 0.948036454688
1 1 -0.036028125 -0.00125 -0.007678125 0.000124095964085
2 1 -0.036028125 -0.00125 -0.006496875 5.32337907934e-08
3 1 -0.036028125 -0.00125 -0.005315625 4.83474805244e-14
4 1 -0.036028125 -0.00125 -0.004134375 9.85113943057e-10
5 1 -0.036028125 -0.00125 -0.002953125 0.0217676173
6 1 -0.036028125 -0.00125 -0.001771875 0.193089833852
7 1 -0.036028125 -0.00125 -0.000590625 0.19408308663
8 1 -0.036028125 -0.00125 0.000590625 0.0322763293325
9 1 -0.036028125 -0.00125 0.001771875 0.0363350043871
10 1 -0.036028125 -0.00125 0.002953125 1.1528661789e-06
11 1 -0.036028125 -0.00125 0.004134375 3.82492359331e-17
12 1 -0.036028125 -0.00125 0.005315625 1.28954273562e-21
13 1 -0.036028125 -0.00125 0.006496875 7.16017529771e-12
14 1 -0.036028125 -0.00125 0.007678125 1.92868428633e-09
15 1 -0.034846875 -0.00125 -0.011221875 0.0215008258031
16 1 -0.034846875 -0.00125 -0.010040625 0.00599173875597
17 1 -0.034846875 -0.00125 -0.008859375 0.121878719589
18 1 -0.034846875 -0.00125 -0.007678125 2.77620874278e-05
19 1 -0.034846875 -0.00125 -0.006496875 7.89474735157e-07
20 1 -0.034846875 -0.00125 -0.005315625 2.2896582932e-14
21 1 -0.034846875 -0.00125 -0.004134375 2.70205715526e-11
22 1 -0.034846875 -0.00125 -0.002953125 0.0095292156363
23 1 -0.034846875 -0.00125 -0.001771875 0.225273095808
24 1 -0.034846875 -0.00125 -0.000590625 0.151569213087
25 1 -0.034846875 -0.00125 0.000590625 0.0496326458994
26 1 -0.034846875 -0.00125 0.001771875 0.0119631635753
27 1 -0.034846875 -0.00125 0.002953125 5.72906450095e-06
28 1 -0.034846875 -0.00125 0.004134375 5.0350509374e-24
29 1 -0.034846875 -0.00125 0.005315625 2.96975546962e-32
30 1 -0.034846875 -0.00125 0.006496875 1.03716116035e-23
31 1 -0.034846875 -0.00125 0.007678125 1.25610940096e-10
32 1 -0.034846875 -0.00125 0.008859375 0.00246725558798
33 1 -0.034846875 -0.00125 0.010040625 1.48094513926e-06
34 1 -0.034846875 -0.00125 0.011221875 2.01564746896e-05
35 1 -0.033665625 -0.00125 -0.013584375 0.000124459334374
36 1 -0.033665625 -0.00125 -0.012403125 0.129780207293
37 1 -0.033665625 -0.00125 -0.011221875 0.0433717993498
38 1 -0.033665625 -0.00125 -0.010040625 0.00843485995547
39 1 -0.033665625 -0.00125 -0.008859375 0.0257459047687
40 1 -0.033665625 -0.00125 -0.007678125 0.000598583041448
41 1 -0.033665625 -0.00125 -0.006496875 1.61885783422e-07
42 1 -0.033665625 -0.00125 -0.005315625 1.66069157962e-13
43 1 -0.033665625 -0.00125 -0.004134375 0.00040954664819
44 1 -0.033665625 -0.00125 -0.002953125 0.0193567214142
45 1 -0.033665625 -0.00125 -0.001771875 0.14038217615
46 1 -0.033665625 -0.00125 -0.000590625 0.168661797699
47 1 -0.033665625 -0.00125 0.000590625 0.0284733551994
48 1 -0.033665625 -0.00125 0.001771875 0.00563255637068
49 1 -0.033665625 -0.00125 0.002953125 3.25242846283e-05
50 1 -0.033665625 -0.00125 0.004134375 4.94138295059e-25
51 1 -0.033665625 -0.00125 0.005315625 2.95983523495e-24
52 1 -0.033665625 -0.00125 0.006496875 5.07104901167e-16
53 1 -0.033665625 -0.00125 0.007678125 1.76247817498e-07
54 1 -0.033665625 -0.00125 0.008859375 0.000255587236825
55 1 -0.033665625 -0.00125 0.010040625 4.57248572632e-06
56 1 -0.033665625 -0.00125 0.011221875 1.00085834442e-05
57 1 -0.033665625 -0.00125 0.012403125 0.000868180514279
58 1 -0.033665625 -0.00125 0.013584375 2.39247116496e-09
59 1 -0.032484375 -0.00125 -0.018309375 0.00276240519221
60 1 -0.032484375 -0.00125 -0.017128125 0.00283449514153
61 1 -0.032484375 -0.00125 -0.015946875 0.0114712088833
62 1 -0.032484375 -0.00125 -0.014765625 0.000933329592499
63 1 -0.032484375 -0.00125 -0.013584375 6.98874547776e-05
64 1 -0.032484375 -0.00125 -0.012403125 0.0533549440427
65 1 -0.032484375 -0.00125 -0.011221875 0.034335997676
66 1 -0.032484375 -0.00125 -0.010040625 0.00526486279862
67 1 -0.032484375 -0.00125 -0.008859375 0.0160365716415
68 1 -0.032484375 -0.00125 -0.007678125 0.000330266867496
69 1 -0.032484375 -0.00125 -0.006496875 1.40552972964e-08
70 1 -0.032484375 -0.00125 -0.005315625 9.36909091915e-12
71 1 -0.032484375 -0.00125 -0.004134375 2.50835229409e-05
72 1 -0.032484375 -0.00125 -0.002953125 0.0027013369974
73 1 -0.032484375 -0.00125 -0.001771875 0.0118965152444
74 1 -0.032484375 -0.00125 -0.000590625 0.0572722560664
75 1 -0.032484375 -0.00125 0.000590625 0.0267631664484
76 1 -0.032484375 -0.00125 0.001771875 0.016756284641
77 1 -0.032484375 -0.00125 0.002953125 0.000102202063146
78 1 -0.032484375 -0.00125 0.004134375 7.68095167408e-12
79 1 -0.032484375 -0.00125 0.005315625 1.55588695198e-16
80 1 -0.032484375 -0.00125 0.006496875 9.64322058448e-18
81 1 -0.032484375 -0.00125 0.007678125 1.89476370883e-09
82 1 -0.032484375 -0.00125 0.008859375 6.53216779739e-05
83 1 -0.032484375 -0.00125 0.010040625 3.90712514965e-05
84 1 -0.032484375 -0.00125 0.011221875 0.000333668120466
85 1 -0.032484375 -0.00125 0.012403125 4.54472929515e-05
86 1 -0.032484375 -0.00125 0.013584375 2.44382172305e-13
87 1 -0.032484375 -0.00125 0.014765625 2.08681484375e-07
88 1 -0.032484375 -0.00125 0.015946875 1.91641395995e-06
89 1 -0.032484375 -0.00125 0.017128125 4.14083687827e-06
90 1 -0.032484375 -0.00125 0.018309375 3.3192712713e-07
91 1 -0.031303125 -0.00125 -0.019490625 0.00118914516613
92 1 -0.031303125 -0.00125 -0.018309375 0.00589470218588
93 1 -0.031303125 -0.00125 -0.017128125 0.0176415456783
94 1 -0.031303125 -0.00125 -0.015946875 0.0072783806755
95 1 -0.031303125 -0.00125 -0.014765625 0.0109206729241
96 1 -0.031303125 -0.00125 -0.013584375 0.00461478141713
97 1 -0.031303125 -0.00125 -0.012403125 0.0256280211161
98 1 -0.031303125 -0.00125 -0.011221875 0.0235776541682
99 1 -0.031303125 -0.00125 -0.010040625 0.00557802530588
100 1 -0.031303125 -0.00125 -0.008859375 0.00041174560796
101 1 -0.031303125 -0.00125 -0.007678125 2.10129676114e-05
102 1 -0.031303125 -0.00125 -0.006496875 7.89318395205e-07
103 1 -0.031303125 -0.00125 -0.005315625 1.48436113108e-07
104 1 -0.031303125 -0.00125 -0.004134375 3.73346327994e-09
105 1 -0.031303125 -0.00125 -0.002953125 6.96356667767e-06
106 1 -0.031303125 -0.00125 -0.001771875 0.000704338355893
107 1 -0.031303125 -0.00125 -0.000590625 0.0218829242139
108 1 -0.031303125 -0.00125 0.000590625 0.0153361466515
109 1 -0.031303125 -0.00125 0.001771875 0.00124030812196
110 1 -0.031303125 -0.00125 0.002953125 0.000108083918769
111 1 -0.031303125 -0.00125 0.004134375 6.38957632191e-06
112 1 -0.031303125 -0.00125 0.005315625 7.54059971236e-09
113 1 -0.031303125 -0.00125 0.006496875 6.07905870882e-13
114 1 -0.031303125 -0.00125 0.007678125 3.21628611022e-08
115 1 -0.031303125 -0.00125 0.008859375 2.94811486101e-07
116 1 -0.031303125 -0.00125 0.010040625 1.49096194971e-06
117 1 -0.031303125 -0.00125 0.011221875 2.30091760901e-05
118 1 -0.031303125 -0.00125 0.012403125 0.00033528511539
119 1 -0.031303125 -0.00125 0.013584375 1.14992705752e-06
120 1 -0.031303125 -0.00125 0.014765625 9.15644725959e-07
121 1 -0.031303125 -0.00125 0.015946875 1.36165610501e-06
122 1 -0.031303125 -0.00125 0.017128125 9.29137999787e-09
123 1 -0.031303125 -0.00125 0.018309375 4.25972528729e-08
124 1 -0.031303125 -0.00125 0.019490625 1.71876823211e-12
125 1 -0.030121875 -0.00125 -0.020671875 2.94332748736e-06
126 1 -0.030121875 -0.00125 -0.019490625 0.000744471973249
127 1 -0.030121875 -0.00125 -0.018309375 0.00818964489711
128 1 -0.030121875 -0.00125 -0.017128125 0.0270005938292
129 1 -0.030121875 -0.00125 -0.015946875 0.0235528624968
130 1 -0.030121875 -0.00125 -0.014765625 0.0062681807561
131 1 -0.030121875 -0.00125 -0.013584375 0.00133625138083
132 1 -0.030121875 -0.00125 -0.012403125 0.00211048912663
133 1 -0.030121875 -0.00125 -0.011221875 0.000163918535107
134 1 -0.030121875 -0.00125 -0.010040625 2.03452703474e-06
135 1 -0.030121875 -0.00125 -0.008859375 4.13312191255e-08
136 1 -0.030121875 -0.00125 -0.007678125 9.38454727996e-09
137 1 -0.030121875 -0.00125 -0.006496875 4.01919129717e-11
138 1 -0.030121875 -0.00125 -0.005315625 1.8484232817e-07
139 1 -0.030121875 -0.00125 -0.004134375 9.53722862122e-12
140 1 -0.030121875 -0.00125 -0.002953125 3.88614254228e-07
141 1 -0.030121875 -0.00125 -0.001771875 0.000489027525202
142 1 -0.030121875 -0.00125 -0.000590625 0.000608215548863
143 1 -0.030121875 -0.00125 0.000590625 0.00146824470136
144 1 -0.030121875 -0.00125 0.001771875 0.000967641326648
145 1 -0.030121875 -0.00125 0.002953125 0.00013068075675
146 1 -0.030121875 -0.00125 0.004134375 9.15539819045e-06
147 1 -0.030121875 -0.00125 0.005315625 9.55384279821e-07
148 1 -0.030121875 -0.00125 0.006496875 9.10604193064e-11
149 1 -0.030121875 -0.00125 0.007678125 1.30732298725e-09
150 1 -0.030121875 -0.00125 0.008859375 2.45810191891e-09
151 1 -0.030121875 -0.00125 0.010040625 1.08030128357e-05
152 1 -0.030121875 -0.00125 0.011221875 2.29049811139e-06
153 1 -0.030121875 -0.00125 0.012403125 0.000699721542493
154 1 -0.030121875 -0.00125 0.013584375 0.000777800485386
155 1 -0.030121875 -0.00125 0.014765625 8.97423173273e-05
156 1 -0.030121875 -0.00125 0.015946875 5.06855413248e-06
157 1 -0.030121875 -0.00125 0.017128125 4.28129962697e-07
158 1 -0.030121875 -0.00125 0.018309375 1.33076308314e-08
159 1 -0.030121875 -0.00125 0.019490625 5.99282859582e-15
160 1 -0.030121875 -0.00125 0.020671875 6.93354023934e-25
161 1 -0.028940625 -0.00125 -0.021853125 0.00883909899095
162 1 -0.028940625 -0.00125 -0.020671875 0.00150893998922
163 1 -0.028940625 -0.00125 -0.019490625 0.0051734605908
164 1 -0.028940625 -0.00125 -0.018309375 0.0097096745424
165 1 -0.028940625 -0.00125 -0.017128125 0.0203085192199
166 1 -0.028940625 -0.00125 -0.015946875 0.0204925909507
167 1 -0.028940625 -0.00125 -0.014765625 0.00764796503039
168 1 -0.028940625 -0.00125 -0.013584375 0.00018399400311
169 1 -0.028940625 -0.00125 -0.012403125 3.48187495808e-06
170 1 -0.028940625 -0.00125 -0.011221875 3.19890345298e-07
171 1 -0.028940625 -0.00125 -0.010040625 3.41943568101e-09
172 1 -0.028940625 -0.00125 -0.008859375 7.80357417988e-11
173 1 -0.028940625 -0.00125 -0.007678125 2.83536483541e-10
174 1 -0.028940625 -0.00125 -0.006496875 8.54590366349e-08
175 1 -0.028940625 -0.00125 -0.005315625 9.21078495765e-08
176 1 -0.028940625 -0.00125 -0.004134375 5.8159476632e-06
177 1 -0.028940625 -0.00125 -0.002953125 1.14512685394e-05
178 1 -0.028940625 -0.00125 -0.001771875 0.000137255054516
179 1 -0.028940625 -0.00125 -0.000590625 0.00132807478282
180 1 -0.028940625 -0.00125 0.000590625 0.000494476202212
181 1 -0.028940625 -0.00125 0.001771875 0.000131686654198
182 1 -0.028940625 -0.00125 0.002953125 4.75945665494e-05
183 1 -0.028940625 -0.00125 0.004134375 3.64922487189e-06
184 1 -0.028940625 -0.00125 0.005315625 4.25666894436e-08
185 1 -0.028940625 -0.00125 0.006496875 3.13300265709e-06
186 1 -0.028940625 -0.00125 0.007678125 1.68562859378e-09
187 1 -0.028940625 -0.00125 0.008859375 6.3336093889e-12
188 1 -0.028940625 -0.00125 0.010040625 2.62492927525e-08
189 1 -0.028940625 -0.00125 0.011221875 1.55493446086e-05
190 1 -0.028940625 -0.00125 0.012403125 0.000133671615549
191 1 -0.028940625 -0.00125 0.013584375 0.000332587519483
192 1 -0.028940625 -0.00125 0.014765625 0.000178090271707
193 1 -0.028940625 -0.00125 0.015946875 0.000103259295318
194 1 -0.028940625 -0.00125 0.017128125 8.77501523035e-06
195 1 -0.028940625 -0.00125 0.018309375 2.52209863211e-07
196 1 -0.028940625 -0.00125 0.019490625 8.91918939563e-16
197 1 -0.028940625 -0.00125 0.020671875 4.68717135459e-18
198 1 -0.028940625 -0.00125 0.021853125 1.14888999598e-11
199 1 -0.027759375 -0.00125 -0.024215625 1.51273834152e-05
200 1 -0.027759375 -0.00125 -0.023034375 0.000578235188167
201 1 -0.027759375 -0.00125 -0.021853125 0.00949829659818
202 1 -0.027759375 -0.00125 -0.020671875 0.0010975268247
203 1 -0.027759375 -0.00125 -0.019490625 0.0026834538625
204 1 -0.027759375 -0.00125 -0.018309375 0.0158012921664
205 1 -0.027759375 -0.00125 -0.017128125 0.0201744088515
206 1 -0.027759375 -0.00125 -0.015946875 0.00346936543247
207 1 -0.027759375 -0.00125 -0.014765625 0.00017020292421
208 1 -0.027759375 -0.00125 -0.013584375 9.77870424319e-06
209 1 -0.027759375 -0.00125 -0.012403125 5.17251586427e-06
210 1 -0.027759375 -0.00125 -0.011221875 3.82928826047e-09
211 1 -0.027759375 -0.00125 -0.010040625 1.40215548015e-09
212 1 -0.027759375 -0.00125 -0.008859375 7.61721468583e-11
213 1 -0.027759375 -0.00125 -0.007678125 4.57471862344e-08
214 1 -0.027759375 -0.00125 -0.006496875 2.67678047023e-06
215 1 -0.027759375 -0.00125 -0.005315625 9.19600080168e-05
216 1 -0.027759375 -0.00125 -0.004134375 0.000808214648435
217 1 -0.027759375 -0.00125 -0.002953125 0.0013202797777
218 1 -0.027759375 -0.00125 -0.001771875 0.000917772167171
219 1 -0.027759375 -0.00125 -0.000590625 0.00672332414536
220 1 -0.027759375 -0.00125 0.000590625 0.00381738920854
221 1 -0.027759375 -0.00125 0.001771875 0.00386184735443
222 1 -0.027759375 -0.00125 0.002953125 0.000276155790128
223 1 -0.027759375 -0.00125 0.004134375 6.06534027635e-06
224 1 -0.027759375 -0.00125 0.005315625 7.93871684287e-08
225 1 -0.027759375 -0.00125 0.006496875 2.77131038914e-07
226 1 -0.027759375 -0.00125 0.007678125 3.10726991245e-08
227 1 -0.027759375 -0.00125 0.008859375 1.75278061613e-06
228 1 -0.027759375 -0.00125 0.010040625 1.0421366127e-05
229 1 -0.027759375 -0.00125 0.011221875 4.85378378207e-05
230 1 -0.027759375 -0.00125 0.012403125 0.00107784537004
231 1 -0.027759375 -0.00125 0.013584375 0.0021997011243
232 1 -0.027759375 -0.00125 0.014765625 0.00334910137877
233 1 -0.027759375 -0.00125 0.015946875 0.000467900086559
234 1 -0.027759375 -0.00125 0.017128125 6.81787275821e-05
235 1 -0.027759375 -0.00125 0.018309375 8.56954619821e-07
236 1 -0.027759375 -0.00125 0.019490625 3.90449567262e-12
237 1 -0.027759375 -0.00125 0.020671875 2.9228702922e-14
238 1 -0.027759375 -0.00125 0.021853125 4.2392518458e-12
239 1 -0.027759375 -0.00125 0.023034375 2.76285207474e-16
240 1 -0.027759375 -0.00125 0.024215625 4.79808216239e-40
241 1 -0.026578125 -0.00125 -0.026578125 8.38019747942e-09
242 1 -0.026578125 -0.00125 -0.025396875 7.39754025055e-08
243 1 -0.026578125 -0.00125 -0.024215625 9.88901355535e-07
244 1 -0.026578125 -0.00125 -0.023034375 2.07868331433e-05
245 1 -0.026578125 -0.00125 -0.021853125 0.000183833248374
246 1 -0.026578125 -0.00125 -0.020671875 0.00138869035322
247 1 -0.026578125 -0.00125 -0.019490625 0.0125383414277
248 1 -0.026578125 -0.00125 -0.018309375 0.0192542664351
249 1 -0.026578125 -0.00125 -0.017128125 0.0204450957473
250 1 -0.026578125 -0.00125 -0.015946875 0.0044252347813
251 1 -0.026578125 -0.00125 -0.014765625 2.2768330479e-05
252 1 -0.026578125 -0.00125 -0.013584375 8.56500267054e-06
253 1 -0.026578125 -0.00125 -0.012403125 6.36122068604e-08
254 1 -0.026578125 -0.00125 -0.011221875 4.36336647862e-08
255 1 -0.026578125 -0.00125 -0.010040625 5.0311336907e-10
256 1 -0.026578125 -0.00125 -0.008859375 2.42025898001e-07
257 1 -0.026578125 -0.00125 -0.007678125 1.07483967498e-05
258 1 -0.026578125 -0.00125 -0.006496875 0.000195293001806
259 1 -0.026578125 -0.00125 -0.005315625 0.00507663053463
260 1 -0.026578125 -0.00125 -0.004134375 0.00745957079422
261 1 -0.026578125 -0.00125 -0.002953125 0.0080092347975
262 1 -0.026578125 -0.00125 -0.001771875 0.0121412867694
263 1 -0.026578125 -0.00125 -0.000590625 0.011690186559
264 1 -0.026578125 -0.00125 0.000590625 0.0157128775625
265 1 -0.026578125 -0.00125 0.001771875 0.013968464323
266 1 -0.026578125 -0.00125 0.002953125 0.00687057377887
267 1 -0.026578125 -0.00125 0.004134375 0.000551570576539
268 1 -0.026578125 -0.00125 0.005315625 0.000143263371329
269 1 -0.026578125 -0.00125 0.006496875 1.14683150414e-09
270 1 -0.026578125 -0.00125 0.007678125 8.69902834867e-09
271 1 -0.026578125 -0.00125 0.008859375 1.42548622754e-06
272 1 -0.026578125 -0.00125 0.010040625 3.39772186961e-05
273 1 -0.026578125 -0.00125 0.011221875 0.000663646576855
274 1 -0.026578125 -0.00125 0.012403125 0.000483303019004
275 1 -0.026578125 -0.00125 0.013584375 0.00475613251267
276 1 -0.026578125 -0.00125 0.014765625 0.00475202554929
277 1 -0.026578125 -0.00125 0.015946875 0.00523780037603
278 1 -0.026578125 -0.00125 0.017128125 0.00236897985727
279 1 -0.026578125 -0.00125 0.018309375 0.000162006316298
280 1 -0.026578125 -0.00125 0.019490625 5.27185043943e-08
281 1 -0.026578125 -0.00125 0.020671875 3.61106399173e-11
282 1 -0.026578125 -0.00125 0.021853125 1.66090247755e-14
283 1 -0.026578125 -0.00125 0.023034375 2.69049980771e-26
284 1 -0.026578125 -0.00125 0.024215625 6.82088807094e-24
285 1 -0.026578125 -0.00125 0.025396875 8.15609491412e-20
286 1 -0.026578125 -0.00125 0.026578125 7.45864117582e-19
287 1 -0.025396875 -0.00125 -0.026578125 3.59592543131e-14
288 1 -0.025396875 -0.00125 -0.025396875 9.64969164957e-07
289 1 -0.025396875 -0.00125 -0.024215625 1.36587110865e-05
290 1 -0.025396875 -0.00125 -0.023034375 0.000171280506732
291 1 -0.025396875 -0.00125 -0.021853125 0.0023806413746
292 1 -0.025396875 -0.00125 -0.020671875 0.00854977536319
293 1 -0.025396875 -0.00125 -0.019490625 0.0106055906548
294 1 -0.025396875 -0.00125 -0.018309375 0.0558199570999
295 1 -0.025396875 -0.00125 -0.017128125 0.0189959654375
296 1 -0.025396875 -0.00125 -0.015946875 0.00791781807701
297 1 -0.025396875 -0.00125 -0.014765625 0.0013165626264
298 1 -0.025396875 -0.00125 -0.013584375 8.18597905034e-05
299 1 -0.025396875 -0.00125 -0.012403125 1.34069247169e-06
300 1 -0.025396875 -0.00125 -0.011221875 3.16942575835e-05
301 1 -0.025396875 -0.00125 -0.010040625 4.09401429765e-05
302 1 -0.025396875 -0.00125 -0.008859375 0.000122613826368
303 1 -0.025396875 -0.00125 -0.007678125 1.68787423031e-05
304 1 -0.025396875 -0.00125 -0.006496875 0.00303853500043
305 1 -0.025396875 -0.00125 -0.005315625 0.0147701972847
306 1 -0.025396875 -0.00125 -0.004134375 0.00916720537726
307 1 -0.025396875 -0.00125 -0.002953125 0.00436003261948
308 1 -0.025396875 -0.00125 -0.001771875 0.00433532020275
309 1 -0.025396875 -0.00125 -0.000590625 0.00389580309087
310 1 -0.025396875 -0.00125 0.000590625 0.0101658525215
311 1 -0.025396875 -0.00125 0.001771875 0.0146764660882
312 1 -0.025396875 -0.00125 0.002953125 0.00231692715361
313 1 -0.025396875 -0.00125 0.004134375 0.00124977364224
314 1 -0.025396875 -0.00125 0.005315625 0.00298122633954
315 1 -0.025396875 -0.00125 0.006496875 0.000560476716515
316 1 -0.025396875 -0.00125 0.007678125 0.000114164059471
317 1 -0.025396875 -0.00125 0.008859375 0.000117323026962
318 1 -0.025396875 -0.00125 0.010040625 1.62766910283e-05
319 1 -0.025396875 -0.00125 0.011221875 7.27978685914e-06
320 1 -0.025396875 -0.00125 0.012403125 0.000349601958724
321 1 -0.025396875 -0.00125 0.013584375 0.00237763910249
322 1 -0.025396875 -0.00125 0.014765625 0.00830887136167
323 1 -0.025396875 -0.00125 0.015946875 0.00892356875218
324 1 -0.025396875 -0.00125 0.017128125 0.00359796192303
325 1 -0.025396875 -0.00125 0.018309375 0.000307779382379
326 1 -0.025396875 -0.00125 0.019490625 1.28961340735e-06
327 1 -0.025396875 -0.00125 0.020671875 3.92010624654e-07
328 1 -0.025396875 -0.00125 0.021853125 3.17226735352e-12
329 1 -0.025396875 -0.00125 0.023034375 2.92859170539e-12
330 1 -0.025396875 -0.00125 0.024215625 1.986246554e-16
331 1 -0.025396875 -0.00125 0.025396875 3.79982281067e-12
332 1 -0.025396875 -0.00125 0.026578125 2.87189712636e-42
333 1 -0.024215625 -0.00125 -0.027759375 5.51499405845e-09
334 1 -0.024215625 -0.00125 -0.026578125 1.02878304269e-06
335 1 -0.024215625 -0.00125 -0.025396875 1.62672810824e-05
336 1 -0.024215625 -0.00125 -0.024215625 0.000716415641456
337 1 -0.024215625 -0.00125 -0.023034375 0.0027505065055
338 1 -0.024215625 -0.00125 -0.021853125 0.00779817375971
339 1 -0.024215625 -0.00125 -0.020671875 0.0121862873719
340 1 -0.024215625 -0.00125 -0.019490625 0.021526402661
341 1 -0.024215625 -0.00125 -0.018309375 0.00999980570696
342 1 -0.024215625 -0.00125 -0.017128125 0.0159836645321
343 1 -0.024215625 -0.00125 -0.015946875 0.0127703513767
344 1 -0.024215625 -0.00125 -0.014765625 0.00430890694126
345 1 -0.024215625 -0.00125 -0.013584375 0.000467137032863
346 1 -0.024215625 -0.00125 -0.012403125 2.11042423438e-05
347 1 -0.024215625 -0.00125 -0.011221875 5.02853057213e-05
348 1 -0.024215625 -0.00125 -0.010040625 0.000269210249068
349 1 -0.024215625 -0.00125 -0.008859375 0.000466745226167
350 1 -0.024215625 -0.00125 -0.007678125 4.71812376225e-05
351 1 -0.024215625 -0.00125 -0.006496875 0.000913852490081
352 1 -0.024215625 -0.00125 -0.005315625 0.00985192867471
353 1 -0.024215625 -0.00125 -0.004134375 0.00440492033842
354 1 -0.024215625 -0.00125 -0.002953125 0.00424228627057
355 1 -0.024215625 -0.00125 -0.001771875 0.00437881390021
356 1 -0.024215625 -0.00125 -0.000590625 0.00209125514613
357 1 -0.024215625 -0.00125 0.000590625 0.00337901409422
358 1 -0.024215625 -0.00125 0.001771875 0.00600666002624
359 1 -0.024215625 -0.00125 0.002953125 0.000753857750052
360 1 -0.024215625 -0.00125 0.004134375 0.00132173544158
361 1 -0.024215625 -0.00125 0.005315625 0.00130074688613
362 1 -0.024215625 -0.00125 0.006496875 0.00122546976851
363 1 -0.024215625 -0.00125 0.007678125 0.000589087570022
364 1 -0.024215625 -0.00125 0.008859375 0.000286108423896
365 1 -0.024215625 -0.00125 0.010040625 0.00100496948298
366 1 -0.024215625 -0.00125 0.011221875 0.000233127490065
367 1 -0.024215625 -0.00125 0.012403125 0.00154552591926
368 1 -0.024215625 -0.00125 0.013584375 0.0037798051263
369 1 -0.024215625 -0.00125 0.014765625 0.00955582898761
370 1 -0.024215625 -0.00125 0.015946875 0.0181982834813
371 1 -0.024215625 -0.00125 0.017128125 0.00696838789538
372 1 -0.024215625 -0.00125 0.018309375 0.000329597866842
373 1 -0.024215625 -0.00125 0.019490625 1.21751480334e-05
374 1 -0.024215625 -0.00125 0.020671875 4.48674560936e-06
375 1 -0.024215625 -0.00125 0.021853125 6.13100259634e-06
376 1 -0.024215625 -0.00125 0.023034375 4.89824430905e-09
377 1 -0.024215625 -0.00125 0.024215625 2.51294753791e-13
378 1 -0.024215625 -0.00125 0.025396875 2.99430381442e-13
379 1 -0.024215625 -0.00125 0.026578125 1.89690812826e-16
380 1 -0.024215625 -0.00125 0.027759375 1.8066418803e-20
381 1 -0.023034375 -0.00125 -0.027759375 1.15424851848e-10
382 1 -0.023034375 -0.00125 -0.026578125 5.51841329586e-06
383 1 -0.023034375 -0.00125 -0.025396875 0.000482349826891
384 1 -0.023034375 -0.00125 -0.024215625 0.000556485815885
385 1 -0.023034375 -0.00125 -0.023034375 0.00574327167769
386 1 -0.023034375 -0.00125 -0.021853125 0.00278148501365
387 1 -0.023034375 -0.00125 -0.020671875 0.0200653779417
388 1 -0.023034375 -0.00125 -0.019490625 0.0192454989508
389 1 -0.023034375 -0.00125 -0.018309375 0.0455228444964
390 1 -0.023034375 -0.00125 -0.017128125 0.0391046022385
391 1 -0.023034375 -0.00125 -0.015946875 0.0200233478408
392 1 -0.023034375 -0.00125 -0.014765625 0.00429998212604
393 1 -0.023034375 -0.00125 -0.013584375 0.00141337735389
394 1 -0.023034375 -0.00125 -0.012403125 0.000136514720873
395 1 -0.023034375 -0.00125 -0.011221875 0.000177852454477
396 1 -0.023034375 -0.00125 -0.010040625 0.00197630429878
397 1 -0.023034375 -0.00125 -0.008859375 0.00111401736857
398 1 -0.023034375 -0.00125 -0.007678125 0.00137684020755
399 1 -0.023034375 -0.00125 -0.006496875 0.0046868955445
400 1 -0.023034375 -0.00125 -0.005315625 0.0149777314412
401 1 -0.023034375 -0.00125 -0.004134375 0.0155460959371
402 1 -0.023034375 -0.00125 -0.002953125 0.0121640730623
403 1 -0.023034375 -0.00125 -0.001771875 0.00488728961557
404 1 -0.023034375 -0.00125 -0.000590625 0.00292556391501
405 1 -0.023034375 -0.00125 0.000590625 0.006237485715
406 1 -0.023034375 -0.00125 0.001771875 0.0054501506116
407 1 -0.023034375 -0.00125 0.002953125 0.00881391024281
408 1 -0.023034375 -0.00125 0.004134375 0.00325561878619
409 1 -0.023034375 -0.00125 0.005315625 0.00344253075245
410 1 -0.023034375 -0.00125 0.006496875 0.00249158553722
411 1 -0.023034375 -0.00125 0.007678125 0.00196818953972
412 1 -0.023034375 -0.00125 0.008859375 0.00319240746603
413 1 -0.023034375 -0.00125 0.010040625 0.00363476369332
414 1 -0.023034375 -0.00125 0.011221875 0.00208926580422
415 1 -0.023034375 -0.00125 0.012403125 0.0043062214434
416 1 -0.023034375 -0.00125 0.013584375 0.017701361459
417 1 -0.023034375 -0.00125 0.014765625 0.0198306363097
418 1 -0.023034375 -0.00125 0.015946875 0.0198673266572
419 1 -0.023034375 -0.00125 0.017128125 0.00308976835434
420 1 -0.023034375 -0.00125 0.018309375 0.00198616802115
421 1 -0.023034375 -0.00125 0.019490625 0.000362392887424
422 1 -0.023034375 -0.00125 0.020671875 0.000410487209693
423 1 -0.023034375 -0.00125 0.021853125 0.000445532043147
424 1 -0.023034375 -0.00125 0.023034375 1.51986869245e-05
425 1 -0.023034375 -0.00125 0.024215625 5.58499749898e-07
426 1 -0.023034375 -0.00125 0.025396875 2.18047592334e-08
427 1 -0.023034375 -0.00125 0.026578125 3.61516234087e-11
428 1 -0.023034375 -0.00125 0.027759375 7.08294158509e-09
429 1 -0.021853125 -0.00125 -0.028940625 6.35760343106e-06
430 1 -0.021853125 -0.00125 -0.027759375 5.74972995651e-06
431 1 -0.021853125 -0.00125 -0.026578125 4.29124704587e-07
432 1 -0.021853125 -0.00125 -0.025396875 0.000149362350845
433 1 -0.021853125 -0.00125 -0.024215625 0.00218835417782
434 1 -0.021853125 -0.00125 -0.023034375 0.00305812511062
435 1 -0.021853125 -0.00125 -0.021853125 0.0123765954061
436 1 -0.021853125 -0.00125 -0.020671875 0.0261578178907
437 1 -0.021853125 -0.00125 -0.019490625 0.0368863811597
438 1 -0.021853125 -0.00125 -0.018309375 0.0427284733507
439 1 -0.021853125 -0.00125 -0.017128125 0.0523815841722
440 1 -0.021853125 -0.00125 -0.015946875 0.046625331018
441 1 -0.021853125 -0.00125 -0.014765625 0.0286596233692
442 1 -0.021853125 -0.00125 -0.013584375 0.00775748056168
443 1 -0.021853125 -0.00125 -0.012403125 0.00161559358161
444 1 -0.021853125 -0.00125 -0.011221875 0.00202978785877
445 1 -0.021853125 -0.00125 -0.010040625 0.0045311112268
446 1 -0.021853125 -0.00125 -0.008859375 0.00385089738496
447 1 -0.021853125 -0.00125 -0.007678125 0.0176425841742
448 1 -0.021853125 -0.00125 -0.006496875 0.0138656748276
449 1 -0.021853125 -0.00125 -0.005315625 0.023932645901
450 1 -0.021853125 -0.00125 -0.004134375 0.0284824257668
451 1 -0.021853125 -0.00125 -0.002953125 0.02416728522
452 1 -0.021853125 -0.00125 -0.001771875 0.0197419337507
453 1 -0.021853125 -0.00125 -0.000590625 0.00756120513633
454 1 -0.021853125 -0.00125 0.000590625 0.00743863644019
455 1 -0.021853125 -0.00125 0.001771875 0.00931040054714
456 1 -0.021853125 -0.00125 0.002953125 0.0290346451043
457 1 -0.021853125 -0.00125 0.004134375 0.0374934536739
458 1 -0.021853125 -0.00125 0.005315625 0.0155630661943
459 1 -0.021853125 -0.00125 0.006496875 0.0023013530408
460 1 -0.021853125 -0.00125 0.007678125 0.00501957544637
461 1 -0.021853125 -0.00125 0.008859375 0.0104537366664
462 1 -0.021853125 -0.00125 0.010040625 0.0131017090293
463 1 -0.021853125 -0.00125 0.011221875 0.0153251827856
464 1 -0.021853125 -0.00125 0.012403125 0.0270690321154
465 1 -0.021853125 -0.00125 0.013584375 0.0396979369657
466 1 -0.021853125 -0.00125 0.014765625 0.0315552176859
467 1 -0.021853125 -0.00125 0.015946875 0.0407310134296
468 1 -0.021853125 -0.00125 0.017128125 0.0154741257429
469 1 -0.021853125 -0.00125 0.018309375 0.00447591042592
470 1 -0.021853125 -0.00125 0.019490625 0.00481046123136
471 1 -0.021853125 -0.00125 0.020671875 0.000574405944516
472 1 -0.021853125 -0.00125 0.021853125 0.000839462240129
473 1 -0.021853125 -0.00125 0.023034375 0.000269355220314
474 1 -0.021853125 -0.00125 0.024215625 4.96470276744e-06
475 1 -0.021853125 -0.00125 0.025396875 2.64030419017e-06
476 1 -0.021853125 -0.00125 0.026578125 5.9692787565e-08
477 1 -0.021853125 -0.00125 0.027759375 1.09831454636e-05
478 1 -0.021853125 -0.00125 0.028940625 5.5606504337e-06
479 1 -0.020671875 -0.00125 -0.030121875 3.00037721015e-05
480 1 -0.020671875 -0.00125 -0.028940625 8.16101673574e-06
481 1 -0.020671875 -0.00125 -0.027759375 1.21518720831e-05
482 1 -0.020671875 -0.00125 -0.026578125 1.7870977204e-05
483 1 -0.020671875 -0.00125 -0.025396875 0.000152562217224
484 1 -0.020671875 -0.00125 -0.024215625 0.000541114505538
485 1 -0.020671875 -0.00125 -0.023034375 0.00396202992643
486 1 -0.020671875 -0.00125 -0.021853125 0.0136499626743
487 1 -0.020671875 -0.00125 -0.020671875 0.0249590874706
488 1 -0.020671875 -0.00125 -0.019490625 0.0752980505899
489 1 -0.020671875 -0.00125 -0.018309375 0.0847462694888
490 1 -0.020671875 -0.00125 -0.017128125 0.0907318574225
491 1 -0.020671875 -0.00125 -0.015946875 0.101791381273
492 1 -0.020671875 -0.00125 -0.014765625 0.0628622726329
493 1 -0.020671875 -0.00125 -0.013584375 0.0288113673084
494 1 -0.020671875 -0.00125 -0.012403125 0.0112674838202
495 1 -0.020671875 -0.00125 -0.011221875 0.00880545774008
496 1 -0.020671875 -0.00125 -0.010040625 0.0158116565686
497 1 -0.020671875 -0.00125 -0.008859375 0.0070704641152
498 1 -0.020671875 -0.00125 -0.007678125 0.0124836161554
499 1 -0.020671875 -0.00125 -0.006496875 0.0195396906343
500 1 -0.020671875 -0.00125 -0.005315625 0.0354235720806
501 1 -0.020671875 -0.00125 -0.004134375 0.0580479124808
502 1 -0.020671875 -0.00125 -0.002953125 0.0463552192952
503 1 -0.020671875 -0.00125 -0.001771875 0.0587201178075
504 1 -0.020671875 -0.00125 -0.000590625 0.0353539030889
505 1 -0.020671875 -0.00125 0.000590625 0.031583251473
506 1 -0.020671875 -0.00125 0.001771875 0.0587910374239
507 1 -0.020671875 -0.00125 0.002953125 0.0588548286332
508 1 -0.020671875 -0.00125 0.004134375 0.0757142243053
509 1 -0.020671875 -0.00125 0.005315625 0.0221588573877
510 1 -0.020671875 -0.00125 0.006496875 0.018239415565
511 1 -0.020671875 -0.00125 0.007678125 0.0194129873694
512 1 -0.020671875 -0.00125 0.008859375 0.038901569362
513 1 -0.020671875 -0.00125 0.010040625 0.0331503149517
514 1 -0.020671875 -0.00125 0.011221875 0.0802491033577
515 1 -0.020671875 -0.00125 0.012403125 0.0841730675425
516 1 -0.020671875 -0.00125 0.013584375 0.0878128855683
517 1 -0.020671875 -0.00125 0.014765625 0.0895090012858