ITEM: TIMESTEP
0
ITEM: NUMBER OF ATOMS
3080
ITEM: BOX BOUNDS ss ss ss
-3.7007399999999996e-02 3.7007399999999996e-02
-2.0002499999999999e-03 2.5000000000000004e-07
-3.7007399999999996e-02 3.7007399999999996e-02
ITEM: ATOMS id type x y z c_1
0 1 -0.037209375 -0.00125 -0.000590625 0.999999918239
1 1 -0.036028125 -0.00125 -0.007678125 1.5755420022e-05
2 1 -0.036028125 -0.00125 -0.006496875 8.86640174578e-11
3 1 -0.036028125 -0.00125 -0.005315625 7.9132862466e-12
4 1 -0.036028125 -0.00125 -0.004134375 3.27703303094e-07
5 1 -0.036028125 -0.00125 -0.002953125 0.0134026858227
6 1 -0.036028125 -0.00125 -0.001771875 0.0227815468618
7 1 -0.036028125 -0.00125 -0.000590625 0.000806556627754
8 1 -0.036028125 -0.00125 0.000590625 1.38291296543e-20
9 1 -0.036028125 -0.00125 0.001771875 1.65356466166e-19
10 1 -0.036028125 -0.00125 0.002953125 4.66222324392e-39
11 1 -0.036028125 -0.00125 0.004134375 3.59210030648e-33
12 1 -0.036028125 -0.00125 0.005315625 2.37155769864e-22
13 1 -0.036028125 -0.00125 0.006496875 3.57165576358e-13
14 1 -0.036028125 -0.00125 0.007678125 1.19815163908e-10
15 1 -0.034846875 -0.00125 -0.011221875 6.68818019689e-05
16 1 -0.034846875 -0.00125 -0.010040625 3.64791712629e-05
17 1 -0.034846875 -0.00125 -0.008859375 0.000207306169645
18 1 -0.034846875 -0.00125 -0.007678125 2.19226153782e-13
19 1 -0.034846875 -0.00125 -0.006496875 3.05684491342e-12
20 1 -0.034846875 -0.00125 -0.005315625 4.9822946325e-15
21 1 -0.034846875 -0.00125 -0.004134375 6.09419631081e-13
22 1 -0.034846875 -0.00125 -0.002953125 0.00196841780178
23 1 -0.034846875 -0.00125 -0.001771875 0.000168646430913
24 1 -0.034846875 -0.00125 -0.000590625 1.27720446195e-05
25 1 -0.034846875 -0.00125 0.000590625 8.87691573961e-19
26 1 -0.034846875 -0.00125 0.001771875 1.77188438809e-38
27 1 -0.034846875 -0.00125 0.002953125 6.35796063544e-68
28 1 -0.034846875 -0.00125 0.004134375 4.21379949437e-43
29 1 -0.034846875 -0.00125 0.005315625 1.90035369603e-19
30 1 -0.034846875 -0.00125 0.006496875 4.33461165971e-16
31 1 -0.034846875 -0.00125 0.007678125 7.49669853159e-13
32 1 -0.034846875 -0.00125 0.008859375 1.11492617281e-06
33 1 -0.034846875 -0.00125 0.010040625 2.52199911215e-10
34 1 -0.034846875 -0.00125 0.011221875 2.32160796089e-16
35 1 -0.033665625 -0.00125 -0.013584375 0.00385216223901
36 1 -0.033665625 -0.00125 -0.012403125 0.0039679813797
37 1 -0.033665625 -0.00125 -0.011221875 1.12616558626e-05
38 1 -0.033665625 -0.00125 -0.010040625 4.24115983172e-05
39 1 -0.033665625 -0.00125 -0.008859375 1.98442549894e-05
40 1 -0.033665625 -0.00125 -0.007678125 2.63629545677e-07
41 1 -0.033665625 -0.00125 -0.006496875 2.72137355747e-09
42 1 -0.033665625 -0.00125 -0.005315625 1.21228082721e-13
43 1 -0.033665625 -0.00125 -0.004134375 2.92871037971e-06
44 1 -0.033665625 -0.00125 -0.002953125 4.70088419779e-05
45 1 -0.033665625 -0.00125 -0.001771875 0.000138194598061
46 1 -0.033665625 -0.00125 -0.000590625 0.000532196926526
47 1 -0.033665625 -0.00125 0.000590625 1.61632219353e-11
48 1 -0.033665625 -0.00125 0.001771875 1.42737401815e-28
49 1 -0.033665625 -0.00125 0.002953125 9.12428670011e-30
50 1 -0.033665625 -0.00125 0.004134375 5.14978240941e-33
51 1 -0.033665625 -0.00125 0.005315625 3.41611978001e-27
52 1 -0.033665625 -0.00125 0.006496875 1.57131010478e-13
53 1 -0.033665625 -0.00125 0.007678125 6.3676520195e-11
54 1 -0.033665625 -0.00125 0.008859375 3.06132230563e-07
55 1 -0.033665625 -0.00125 0.010040625 6.46100365305e-10
56 1 -0.033665625 -0.00125 0.011221875 1.02962191546e-11
57 1 -0.033665625 -0.00125 0.012403125 5.45919175312e-10
58 1 -0.033665625 -0.00125 0.013584375 2.21415129527e-25
59 1 -0.032484375 -0.00125 -0.018309375 0.0541501993024
60 1 -0.032484375 -0.00125 -0.017128125 0.0403734728937
61 1 -0.032484375 -0.00125 -0.015946875 0.0626476477128
62 1 -0.032484375 -0.00125 -0.014765625 0.0422393740956
63 1 -0.032484375 -0.00125 -0.013584375 0.00488219564246
64 1 -0.032484375 -0.00125 -0.012403125 0.00840424339469
65 1 -0.032484375 -0.00125 -0.011221875 0.00173652574698
66 1 -0.032484375 -0.00125 -0.010040625 0.00344215943073
67 1 -0.032484375 -0.00125 -0.008859375 0.00799810665778
68 1 -0.032484375 -0.00125 -0.007678125 0.00701694532628
69 1 -0.032484375 -0.00125 -0.006496875 1.58920224062e-05
70 1 -0.032484375 -0.00125 -0.005315625 0.00149432469402
71 1 -0.032484375 -0.00125 -0.004134375 0.0149963272993
72 1 -0.032484375 -0.00125 -0.002953125 0.00273831362183
73 1 -0.032484375 -0.00125 -0.001771875 0.0357308430145
74 1 -0.032484375 -0.00125 -0.000590625 0.0333385805114
75 1 -0.032484375 -0.00125 0.000590625 0.000140445334615
76 1 -0.032484375 -0.00125 0.001771875 0.00133865045574
77 1 -0.032484375 -0.00125 0.002953125 0.000154127850189
78 1 -0.032484375 -0.00125 0.004134375 0.00211464966944
79 1 -0.032484375 -0.00125 0.005315625 3.4981886758e-07
80 1 -0.032484375 -0.00125 0.006496875 7.32652392543e-05
81 1 -0.032484375 -0.00125 0.007678125 8.69095028507e-05
82 1 -0.032484375 -0.00125 0.008859375 6.30288236122e-06
83 1 -0.032484375 -0.00125 0.010040625 3.22173920617e-07
84 1 -0.032484375 -0.00125 0.011221875 1.42850157244e-08
85 1 -0.032484375 -0.00125 0.012403125 3.96217737397e-15
86 1 -0.032484375 -0.00125 0.013584375 2.72469326378e-43
87 1 -0.032484375 -0.00125 0.014765625 2.42364579515e-26
88 1 -0.032484375 -0.00125 0.015946875 3.61500480745e-33
89 1 -0.032484375 -0.00125 0.017128125 1.76764554171e-37
90 1 -0.032484375 -0.00125 0.018309375 1.87558925742e-37
91 1 -0.031303125 -0.00125 -0.019490625 0.0242697845941
92 1 -0.031303125 -0.00125 -0.018309375 0.0786591003902
93 1 -0.031303125 -0.00125 -0.017128125 0.106451822944
94 1 -0.031303125 -0.00125 -0.015946875 0.0805782574467
95 1 -0.031303125 -0.00125 -0.014765625 0.0878877864803
96 1 -0.031303125 -0.00125 -0.013584375 0.005205222115
97 1 -0.031303125 -0.00125 -0.012403125 0.00210545723957
98 1 -0.031303125 -0.00125 -0.011221875 0.00161008730981
99 1 -0.031303125 -0.00125 -0.010040625 0.0108467376568
100 1 -0.031303125 -0.00125 -0.008859375 0.0280455819644
101 1 -0.031303125 -0.00125 -0.007678125 0.0270969171048
102 1 -0.031303125 -0.00125 -0.006496875 0.00630710371802
103 1 -0.031303125 -0.00125 -0.005315625 0.0125377264847
104 1 -0.031303125 -0.00125 -0.004134375 0.010956484762
105 1 -0.031303125 -0.00125 -0.002953125 0.163853658601
106 1 -0.031303125 -0.00125 -0.001771875 0.0691278476048
107 1 -0.031303125 -0.00125 -0.000590625 0.0624727244576
108 1 -0.031303125 -0.00125 0.000590625 0.0322661232661
109 1 -0.031303125 -0.00125 0.001771875 0.0153286183877
110 1 -0.031303125 -0.00125 0.002953125 0.0285634784459
111 1 -0.031303125 -0.00125 0.004134375 0.0252098375887
112 1 -0.031303125 -0.00125 0.005315625 0.0115327947155
113 1 -0.031303125 -0.00125 0.006496875 0.00710799685921
114 1 -0.031303125 -0.00125 0.007678125 0.00164958476987
115 1 -0.031303125 -0.00125 0.008859375 7.33510064914e-07
116 1 -0.031303125 -0.00125 0.010040625 4.4417680683e-07
117 1 -0.031303125 -0.00125 0.011221875 2.05765811669e-07
118 1 -0.031303125 -0.00125 0.012403125 2.0671833251e-08
119 1 -0.031303125 -0.00125 0.013584375 4.31806483283e-19
120 1 -0.031303125 -0.00125 0.014765625 1.27166825702e-29
121 1 -0.031303125 -0.00125 0.015946875 9.19491561647e-37
122 1 -0.031303125 -0.00125 0.017128125 5.65801740755e-48
123 1 -0.031303125 -0.00125 0.018309375 4.76764241512e-39
124 1 -0.031303125 -0.00125 0.019490625 1.02552941512e-47
125 1 -0.030121875 -0.00125 -0.020671875 0.0166572093541
126 1 -0.030121875 -0.00125 -0.019490625 0.142989146478
127 1 -0.030121875 -0.00125 -0.018309375 0.208144067749
128 1 -0.030121875 -0.00125 -0.017128125 0.189007704686
129 1 -0.030121875 -0.00125 -0.015946875 0.140275285314
130 1 -0.030121875 -0.00125 -0.014765625 0.0823823211824
131 1 -0.030121875 -0.00125 -0.013584375 0.00558002733566
132 1 -0.030121875 -0.00125 -0.012403125 0.0156199077258
133 1 -0.030121875 -0.00125 -0.011221875 0.013006206852
134 1 -0.030121875 -0.00125 -0.010040625 0.0326136726688
135 1 -0.030121875 -0.00125 -0.008859375 0.0466277040299
136 1 -0.030121875 -0.00125 -0.007678125 0.0498847118239
137 1 -0.030121875 -0.00125 -0.006496875 0.0338743981142
138 1 -0.030121875 -0.00125 -0.005315625 0.159710527251
139 1 -0.030121875 -0.00125 -0.004134375 0.154382491887
140 1 -0.030121875 -0.00125 -0.002953125 0.304972757531
141 1 -0.030121875 -0.00125 -0.001771875 0.271171537008
142 1 -0.030121875 -0.00125 -0.000590625 0.160429909558
143 1 -0.030121875 -0.00125 0.000590625 0.126166110585
144 1 -0.030121875 -0.00125 0.001771875 0.118740716865
145 1 -0.030121875 -0.00125 0.002953125 0.0902905440426
146 1 -0.030121875 -0.00125 0.004134375 0.0677434893172
147 1 -0.030121875 -0.00125 0.005315625 0.0208695925896
148 1 -0.030121875 -0.00125 0.006496875 0.00549205252938
149 1 -0.030121875 -0.00125 0.007678125 5.33574816062e-05
150 1 -0.030121875 -0.00125 0.008859375 4.34254068798e-06
151 1 -0.030121875 -0.00125 0.010040625 3.71887768207e-05
152 1 -0.030121875 -0.00125 0.011221875 6.79435036021e-07
153 1 -0.030121875 -0.00125 0.012403125 2.50302906249e-06
154 1 -0.030121875 -0.00125 0.013584375 2.63089169701e-10
155 1 -0.030121875 -0.00125 0.014765625 4.08304532498e-14
156 1 -0.030121875 -0.00125 0.015946875 7.70694224518e-38
157 1 -0.030121875 -0.00125 0.017128125 5.3663027189e-32
158 1 -0.030121875 -0.00125 0.018309375 3.21922258973e-39
159 1 -0.030121875 -0.00125 0.019490625 1.67846690628e-70
160 1 -0.030121875 -0.00125 0.020671875 8.05589615165e-118
161 1 -0.028940625 -0.00125 -0.021853125 0.325416618825
162 1 -0.028940625 -0.00125 -0.020671875 0.174246600326
163 1 -0.028940625 -0.00125 -0.019490625 0.144518936644
164 1 -0.028940625 -0.00125 -0.018309375 0.178265987837
165 1 -0.028940625 -0.00125 -0.017128125 0.202081238296
166 1 -0.028940625 -0.00125 -0.015946875 0.153412364786
167 1 -0.028940625 -0.00125 -0.014765625 0.061001068298
168 1 -0.028940625 -0.00125 -0.013584375 0.0273217797057
169 1 -0.028940625 -0.00125 -0.012403125 0.0356253831524
170 1 -0.028940625 -0.00125 -0.011221875 0.0502205666248
171 1 -0.028940625 -0.00125 -0.010040625 0.0802507361689
172 1 -0.028940625 -0.00125 -0.008859375 0.169972811546
173 1 -0.028940625 -0.00125 -0.007678125 0.182799619371
174 1 -0.028940625 -0.00125 -0.006496875 0.303674060023
175 1 -0.028940625 -0.00125 -0.005315625 0.344914139341
176 1 -0.028940625 -0.00125 -0.004134375 0.559255497983
177 1 -0.028940625 -0.00125 -0.002953125 0.516310716118
178 1 -0.028940625 -0.00125 -0.001771875 0.49658889636
179 1 -0.028940625 -0.00125 -0.000590625 0.30559129803
180 1 -0.028940625 -0.00125 0.000590625 0.287715779399
181 1 -0.028940625 -0.00125 0.001771875 0.194893841518
182 1 -0.028940625 -0.00125 0.002953125 0.153783679489
183 1 -0.028940625 -0.00125 0.004134375 0.00312385978726
184 1 -0.028940625 -0.00125 0.005315625 0.00427940800849
185 1 -0.028940625 -0.00125 0.006496875 0.00030434371069
186 1 -0.028940625 -0.00125 0.007678125 3.04659731233e-06
187 1 -0.028940625 -0.00125 0.008859375 0.000264843342341
188 1 -0.028940625 -0.00125 0.010040625 0.00015706203629
189 1 -0.028940625 -0.00125 0.011221875 2.52386814015e-05
190 1 -0.028940625 -0.00125 0.012403125 6.22164546e-07
191 1 -0.028940625 -0.00125 0.013584375 8.66078259336e-07
192 1 -0.028940625 -0.00125 0.014765625 1.91156492869e-15
193 1 -0.028940625 -0.00125 0.015946875 1.03023827328e-19
194 1 -0.028940625 -0.00125 0.017128125 1.10397228032e-21
195 1 -0.028940625 -0.00125 0.018309375 1.73726395981e-25
196 1 -0.028940625 -0.00125 0.019490625 5.59991757221e-84
197 1 -0.028940625 -0.00125 0.020671875 7.69384006418e-105
198 1 -0.028940625 -0.00125 0.021853125 1.03906932706e-49
199 1 -0.027759375 -0.00125 -0.024215625 0.107218874512
200 1 -0.027759375 -0.00125 -0.023034375 0.264150390512
201 1 -0.027759375 -0.00125 -0.021853125 0.60694367311
202 1 -0.027759375 -0.00125 -0.020671875 0.371627372355
203 1 -0.027759375 -0.00125 -0.019490625 0.279918139406
204 1 -0.027759375 -0.00125 -0.018309375 0.304657779865
205 1 -0.027759375 -0.00125 -0.017128125 0.265625464464
206 1 -0.027759375 -0.00125 -0.015946875 0.193171847172
207 1 -0.027759375 -0.00125 -0.014765625 0.0760885676348
208 1 -0.027759375 -0.00125 -0.013584375 0.0881556919494
209 1 -0.027759375 -0.00125 -0.012403125 0.0759254483486
210 1 -0.027759375 -0.00125 -0.011221875 0.116253091633
211 1 -0.027759375 -0.00125 -0.010040625 0.146256109525
212 1 -0.027759375 -0.00125 -0.008859375 0.337275671565
213 1 -0.027759375 -0.00125 -0.007678125 0.426044589028
214 1 -0.027759375 -0.00125 -0.006496875 0.418137236152
215 1 -0.027759375 -0.00125 -0.005315625 0.477892996196
216 1 -0.027759375 -0.00125 -0.004134375 0.650564857194
217 1 -0.027759375 -0.00125 -0.002953125 0.607318191923
218 1 -0.027759375 -0.00125 -0.001771875 0.514483309625
219 1 -0.027759375 -0.00125 -0.000590625 0.419420884916
220 1 -0.027759375 -0.00125 0.000590625 0.330275521159
221 1 -0.027759375 -0.00125 0.001771875 0.200809629257
222 1 -0.027759375 -0.00125 0.002953125 0.174622977625
223 1 -0.027759375 -0.00125 0.004134375 0.0378514655784
224 1 -0.027759375 -0.00125 0.005315625 0.00611497288453
225 1 -0.027759375 -0.00125 0.006496875 0.00309938478562
226 1 -0.027759375 -0.00125 0.007678125 0.00531340093732
227 1 -0.027759375 -0.00125 0.008859375 0.00141559841787
228 1 -0.027759375 -0.00125 0.010040625 0.012053056622
229 1 -0.027759375 -0.00125 0.011221875 0.00394135539941
230 1 -0.027759375 -0.00125 0.012403125 0.00076804315417
231 1 -0.027759375 -0.00125 0.013584375 0.000220280799428
232 1 -0.027759375 -0.00125 0.014765625 1.42755032865e-07
233 1 -0.027759375 -0.00125 0.015946875 6.89169802168e-09
234 1 -0.027759375 -0.00125 0.017128125 5.73756966225e-12
235 1 -0.027759375 -0.00125 0.018309375 1.89629101167e-12
236 1 -0.027759375 -0.00125 0.019490625 4.69523405896e-32
237 1 -0.027759375 -0.00125 0.020671875 1.12324212986e-139
238 1 -0.027759375 -0.00125 0.021853125 2.25851489386e-58
239 1 -0.027759375 -0.00125 0.023034375 2.70884467008e-137
240 1 -0.027759375 -0.00125 0.024215625 0.0
241 1 -0.026578125 -0.00125 -0.026578125 0.274555010915
242 1 -0.026578125 -0.00125 -0.025396875 0.26586208623
243 1 -0.026578125 -0.00125 -0.024215625 0.195345007626
244 1 -0.026578125 -0.00125 -0.023034375 0.379630190909
245 1 -0.026578125 -0.00125 -0.021853125 0.619206453538
246 1 -0.026578125 -0.00125 -0.020671875 0.500841236412
247 1 -0.026578125 -0.00125 -0.019490625 0.381279918079
248 1 -0.026578125 -0.00125 -0.018309375 0.372039653186
249 1 -0.026578125 -0.00125 -0.017128125 0.329838850896
250 1 -0.026578125 -0.00125 -0.015946875 0.252213898989
251 1 -0.026578125 -0.00125 -0.014765625 0.230650722355
252 1 -0.026578125 -0.00125 -0.013584375 0.25040217545
253 1 -0.026578125 -0.00125 -0.012403125 0.197403739499
254 1 -0.026578125 -0.00125 -0.011221875 0.284269704803
255 1 -0.026578125 -0.00125 -0.010040625 0.294261125748
256 1 -0.026578125 -0.00125 -0.008859375 0.381282302963
257 1 -0.026578125 -0.00125 -0.007678125 0.548386211515
258 1 -0.026578125 -0.00125 -0.006496875 0.511056758073
259 1 -0.026578125 -0.00125 -0.005315625 0.43457603164
260 1 -0.026578125 -0.00125 -0.004134375 0.505004818296
261 1 -0.026578125 -0.00125 -0.002953125 0.530887156254
262 1 -0.026578125 -0.00125 -0.001771875 0.486637964192
263 1 -0.026578125 -0.00125 -0.000590625 0.365768145229
264 1 -0.026578125 -0.00125 0.000590625 0.336184424277
265 1 -0.026578125 -0.00125 0.001771875 0.159532089687
266 1 -0.026578125 -0.00125 0.002953125 0.119876421686
267 1 -0.026578125 -0.00125 0.004134375 0.0675695243966
268 1 -0.026578125 -0.00125 0.005315625 0.0860358780083
269 1 -0.026578125 -0.00125 0.006496875 0.118684733681
270 1 -0.026578125 -0.00125 0.007678125 0.0444352303625
271 1 -0.026578125 -0.00125 0.008859375 0.00522890435272
272 1 -0.026578125 -0.00125 0.010040625 0.0351019953519
273 1 -0.026578125 -0.00125 0.011221875 0.0574972674102
274 1 -0.026578125 -0.00125 0.012403125 0.0393012314699
275 1 -0.026578125 -0.00125 0.013584375 0.00693839124236
276 1 -0.026578125 -0.00125 0.014765625 0.000844997213368
277 1 -0.026578125 -0.00125 0.015946875 7.16792890918e-05
278 1 -0.026578125 -0.00125 0.017128125 1.24486395947e-05
279 1 -0.026578125 -0.00125 0.018309375 1.41941800289e-07
280 1 -0.026578125 -0.00125 0.019490625 1.07495909183e-27
281 1 -0.026578125 -0.00125 0.020671875 5.52674500411e-185
282 1 -0.026578125 -0.00125 0.021853125 0.0
283 1 -0.026578125 -0.00125 0.023034375 0.0
284 1 -0.026578125 -0.00125 0.024215625 0.0
285 1 -0.026578125 -0.00125 0.025396875 0.0
286 1 -0.026578125 -0.00125 0.026578125 0.0
287 1 -0.025396875 -0.00125 -0.026578125 0.133673409112
288 1 -0.025396875 -0.00125 -0.025396875 0.373070296495
289 1 -0.025396875 -0.00125 -0.024215625 0.354762227307
290 1 -0.025396875 -0.00125 -0.023034375 0.484735609358
291 1 -0.025396875 -0.00125 -0.021853125 0.650770431302
292 1 -0.025396875 -0.00125 -0.020671875 0.563228903937
293 1 -0.025396875 -0.00125 -0.019490625 0.536120762671
294 1 -0.025396875 -0.00125 -0.018309375 0.549550330741
295 1 -0.025396875 -0.00125 -0.017128125 0.380202720529
296 1 -0.025396875 -0.00125 -0.015946875 0.385896592665
297 1 -0.025396875 -0.00125 -0.014765625 0.33785006503
298 1 -0.025396875 -0.00125 -0.013584375 0.285188102928
299 1 -0.025396875 -0.00125 -0.012403125 0.421940170053
300 1 -0.025396875 -0.00125 -0.011221875 0.298003378417
301 1 -0.025396875 -0.00125 -0.010040625 0.335625698761
302 1 -0.025396875 -0.00125 -0.008859375 0.373526874751
303 1 -0.025396875 -0.00125 -0.007678125 0.474103740882
304 1 -0.025396875 -0.00125 -0.006496875 0.533164614285
305 1 -0.025396875 -0.00125 -0.005315625 0.524147455406
306 1 -0.025396875 -0.00125 -0.004134375 0.526490178959
307 1 -0.025396875 -0.00125 -0.002953125 0.616885670449
308 1 -0.025396875 -0.00125 -0.001771875 0.571840844838
309 1 -0.025396875 -0.00125 -0.000590625 0.419313285522
310 1 -0.025396875 -0.00125 0.000590625 0.285934651221
311 1 -0.025396875 -0.00125 0.001771875 0.190768052585
312 1 -0.025396875 -0.00125 0.002953125 0.107794940636
313 1 -0.025396875 -0.00125 0.004134375 0.0832282825384
314 1 -0.025396875 -0.00125 0.005315625 0.157951262251
315 1 -0.025396875 -0.00125 0.006496875 0.16502201247
316 1 -0.025396875 -0.00125 0.007678125 0.0854542271294
317 1 -0.025396875 -0.00125 0.008859375 0.0303299361804
318 1 -0.025396875 -0.00125 0.010040625 0.0887669684032
319 1 -0.025396875 -0.00125 0.011221875 0.163499528593
320 1 -0.025396875 -0.00125 0.012403125 0.111132139956
321 1 -0.025396875 -0.00125 0.013584375 0.048970079149
322 1 -0.025396875 -0.00125 0.014765625 0.001923314564
323 1 -0.025396875 -0.00125 0.015946875 0.000550427251297
324 1 -0.025396875 -0.00125 0.017128125 6.40298370414e-05
325 1 -0.025396875 -0.00125 0.018309375 1.90799711668e-05
326 1 -0.025396875 -0.00125 0.019490625 4.62721832589e-24
327 1 -0.025396875 -0.00125 0.020671875 1.61939845019e-72
328 1 -0.025396875 -0.00125 0.021853125 0.0
329 1 -0.025396875 -0.00125 0.023034375 0.0
330 1 -0.025396875 -0.00125 0.024215625 0.0
331 1 -0.025396875 -0.00125 0.025396875 0.0
332 1 -0.025396875 -0.00125 0.026578125 0.0
333 1 -0.024215625 -0.00125 -0.027759375 0.0438771364705
334 1 -0.024215625 -0.00125 -0.026578125 0.156279534398
335 1 -0.024215625 -0.00125 -0.025396875 0.283336361078
336 1 -0.024215625 -0.00125 -0.024215625 0.460782050854
337 1 -0.024215625 -0.00125 -0.023034375 0.499711161454
338 1 -0.024215625 -0.00125 -0.021853125 0.57948083562
339 1 -0.024215625 -0.00125 -0.020671875 0.695440075447
340 1 -0.024215625 -0.00125 -0.019490625 0.659078405686
341 1 -0.024215625 -0.00125 -0.018309375 0.591187437982
342 1 -0.024215625 -0.00125 -0.017128125 0.487835262991
343 1 -0.024215625 -0.00125 -0.015946875 0.475652136891
344 1 -0.024215625 -0.00125 -0.014765625 0.340540134569
345 1 -0.024215625 -0.00125 -0.013584375 0.339214740729
346 1 -0.024215625 -0.00125 -0.012403125 0.305415288174
347 1 -0.024215625 -0.00125 -0.011221875 0.364211840152
348 1 -0.024215625 -0.00125 -0.010040625 0.368112195775
349 1 -0.024215625 -0.00125 -0.008859375 0.365737584179
350 1 -0.024215625 -0.00125 -0.007678125 0.44629368949
351 1 -0.024215625 -0.00125 -0.006496875 0.523478961508
352 1 -0.024215625 -0.00125 -0.005315625 0.518312642472
353 1 -0.024215625 -0.00125 -0.004134375 0.552942302486
354 1 -0.024215625 -0.00125 -0.002953125 0.52521180227
355 1 -0.024215625 -0.00125 -0.001771875 0.452832587583
356 1 -0.024215625 -0.00125 -0.000590625 0.382594020896
357 1 -0.024215625 -0.00125 0.000590625 0.328014365839
358 1 -0.024215625 -0.00125 0.001771875 0.223679887452
359 1 -0.024215625 -0.00125 0.002953125 0.163265511624
360 1 -0.024215625 -0.00125 0.004134375 0.132423477235
361 1 -0.024215625 -0.00125 0.005315625 0.101978959864
362 1 -0.024215625 -0.00125 0.006496875 0.0846949474088
363 1 -0.024215625 -0.00125 0.007678125 0.0669423228658
364 1 -0.024215625 -0.00125 0.008859375 0.0254347998777
365 1 -0.024215625 -0.00125 0.010040625 0.0269408988887
366 1 -0.024215625 -0.00125 0.011221875 0.0192999541902
367 1 -0.024215625 -0.00125 0.012403125 0.0247284483377
368 1 -0.024215625 -0.00125 0.013584375 0.0254634530491
369 1 -0.024215625 -0.00125 0.014765625 0.0080223288742
370 1 -0.024215625 -0.00125 0.015946875 0.00344879075899
371 1 -0.024215625 -0.00125 0.017128125 0.000544968116201
372 1 -0.024215625 -0.00125 0.018309375 1.92140347506e-05
373 1 -0.024215625 -0.00125 0.019490625 9.85030282702e-20
374 1 -0.024215625 -0.00125 0.020671875 1.61325348262e-105
375 1 -0.024215625 -0.00125 0.021853125 0.0
376 1 -0.024215625 -0.00125 0.023034375 0.0
377 1 -0.024215625 -0.00125 0.024215625 0.0
378 1 -0.024215625 -0.00125 0.025396875 0.0
379 1 -0.024215625 -0.00125 0.026578125 9.24068728716e-286
380 1 -0.024215625 -0.00125 0.027759375 1.12294535974e-298
381 1 -0.023034375 -0.00125 -0.027759375 0.165910735849
382 1 -0.023034375 -0.00125 -0.026578125 0.172746150674
383 1 -0.023034375 -0.00125 -0.025396875 0.375476938583
384 1 -0.023034375 -0.00125 -0.024215625 0.501761961941
385 1 -0.023034375 -0.00125 -0.023034375 0.574022577322
386 1 -0.023034375 -0.00125 -0.021853125 0.590731457579
387 1 -0.023034375 -0.00125 -0.020671875 0.512667138123
388 1 -0.023034375 -0.00125 -0.019490625 0.731367430792
389 1 -0.023034375 -0.00125 -0.018309375 0.660644271836
390 1 -0.023034375 -0.00125 -0.017128125 0.63389516584
391 1 -0.023034375 -0.00125 -0.015946875 0.646036654234
392 1 -0.023034375 -0.00125 -0.014765625 0.579490945131
393 1 -0.023034375 -0.00125 -0.013584375 0.599189040682
394 1 -0.023034375 -0.00125 -0.012403125 0.573107520202
395 1 -0.023034375 -0.00125 -0.011221875 0.628060566383
396 1 -0.023034375 -0.00125 -0.010040625 0.626961771611
397 1 -0.023034375 -0.00125 -0.008859375 0.534739873272
398 1 -0.023034375 -0.00125 -0.007678125 0.55600796562
399 1 -0.023034375 -0.00125 -0.006496875 0.543180874333
400 1 -0.023034375 -0.00125 -0.005315625 0.514838248574
401 1 -0.023034375 -0.00125 -0.004134375 0.545044102626
402 1 -0.023034375 -0.00125 -0.002953125 0.549284064752
403 1 -0.023034375 -0.00125 -0.001771875 0.470824567482
404 1 -0.023034375 -0.00125 -0.000590625 0.401834193743
405 1 -0.023034375 -0.00125 0.000590625 0.358677459568
406 1 -0.023034375 -0.00125 0.001771875 0.267438133662
407 1 -0.023034375 -0.00125 0.002953125 0.130819160753
408 1 -0.023034375 -0.00125 0.004134375 0.107679686488
409 1 -0.023034375 -0.00125 0.005315625 0.107356164584
410 1 -0.023034375 -0.00125 0.006496875 0.0490553619657
411 1 -0.023034375 -0.00125 0.007678125 0.0452160691974
412 1 -0.023034375 -0.00125 0.008859375 0.0315088417672
413 1 -0.023034375 -0.00125 0.010040625 0.0527640737267
414 1 -0.023034375 -0.00125 0.011221875 0.0259893082809
415 1 -0.023034375 -0.00125 0.012403125 0.0386377194257
416 1 -0.023034375 -0.00125 0.013584375 0.0157543072628
417 1 -0.023034375 -0.00125 0.014765625 0.0273218943976
418 1 -0.023034375 -0.00125 0.015946875 0.00624808630734
419 1 -0.023034375 -0.00125 0.017128125 0.00102182381365
420 1 -0.023034375 -0.00125 0.018309375 5.01279333446e-05
421 1 -0.023034375 -0.00125 0.019490625 1.66131725919e-13
422 1 -0.023034375 -0.00125 0.020671875 1.26171430459e-53
423 1 -0.023034375 -0.00125 0.021853125 0.0
424 1 -0.023034375 -0.00125 0.023034375 0.0
425 1 -0.023034375 -0.00125 0.024215625 0.0
426 1 -0.023034375 -0.00125 0.025396875 0.0
427 1 -0.023034375 -0.00125 0.026578125 1.34936850202e-266
428 1 -0.023034375 -0.00125 0.027759375 7.22912615524e-57
429 1 -0.021853125 -0.00125 -0.028940625 0.377719763399
430 1 -0.021853125 -0.00125 -0.027759375 0.470044753407
431 1 -0.021853125 -0.00125 -0.026578125 0.457099158154
432 1 -0.021853125 -0.00125 -0.025396875 0.417109891317
433 1 -0.021853125 -0.00125 -0.024215625 0.517276756587
434 1 -0.021853125 -0.00125 -0.023034375 0.550155607691
435 1 -0.021853125 -0.00125 -0.021853125 0.594907494364
436 1 -0.021853125 -0.00125 -0.020671875 0.719179219937
437 1 -0.021853125 -0.00125 -0.019490625 0.747439234383
438 1 -0.021853125 -0.00125 -0.018309375 0.811239607018
439 1 -0.021853125 -0.00125 -0.017128125 0.86473873873
440 1 -0.021853125 -0.00125 -0.015946875 0.808114089179
441 1 -0.021853125 -0.00125 -0.014765625 0.762576204905
442 1 -0.021853125 -0.00125 -0.013584375 0.749783818156
443 1 -0.021853125 -0.00125 -0.012403125 0.785953547245
444 1 -0.021853125 -0.00125 -0.011221875 0.716243162305
445 1 -0.021853125 -0.00125 -0.010040625 0.680525117769
446 1 -0.021853125 -0.00125 -0.008859375 0.711216254844
447 1 -0.021853125 -0.00125 -0.007678125 0.756627342847
448 1 -0.021853125 -0.00125 -0.006496875 0.577914503413
449 1 -0.021853125 -0.00125 -0.005315625 0.519958599679
450 1 -0.021853125 -0.00125 -0.004134375 0.512244600623
451 1 -0.021853125 -0.00125 -0.002953125 0.393609083515
452 1 -0.021853125 -0.00125 -0.001771875 0.335698381618
453 1 -0.021853125 -0.00125 -0.000590625 0.377010906859
454 1 -0.021853125 -0.00125 0.000590625 0.296315187206
455 1 -0.021853125 -0.00125 0.001771875 0.214378559083
456 1 -0.021853125 -0.00125 0.002953125 0.0698985393812
457 1 -0.021853125 -0.00125 0.004134375 0.0577099418106
458 1 -0.021853125 -0.00125 0.005315625 0.0656620642742
459 1 -0.021853125 -0.00125 0.006496875 0.070654844335
460 1 -0.021853125 -0.00125 0.007678125 0.0615551170777
461 1 -0.021853125 -0.00125 0.008859375 0.0275516977873
462 1 -0.021853125 -0.00125 0.010040625 0.0115312000456
463 1 -0.021853125 -0.00125 0.011221875 0.00929971660466
464 1 -0.021853125 -0.00125 0.012403125 0.00778751155411
465 1 -0.021853125 -0.00125 0.013584375 0.0213859626975
466 1 -0.021853125 -0.00125 0.014765625 0.027419945473
467 1 -0.021853125 -0.00125 0.015946875 0.0154027067098
468 1 -0.021853125 -0.00125 0.017128125 0.00149711003103
469 1 -0.021853125 -0.00125 0.018309375 5.12874433338e-06
470 1 -0.021853125 -0.00125 0.019490625 6.69542570442e-14
471 1 -0.021853125 -0.00125 0.020671875 6.14030311242e-107
472 1 -0.021853125 -0.00125 0.021853125 0.0
473 1 -0.021853125 -0.00125 0.023034375 0.0
474 1 -0.021853125 -0.00125 0.024215625 0.0
475 1 -0.021853125 -0.00125 0.025396875 3.86632886201e-219
476 1 -0.021853125 -0.00125 0.026578125 8.77801426451e-55
477 1 -0.021853125 -0.00125 0.027759375 4.60270586374e-26
478 1 -0.021853125 -0.00125 0.028940625 8.11854832923e-47
479 1 -0.020671875 -0.00125 -0.030121875 0.124451426
480 1 -0.020671875 -0.00125 -0.028940625 0.298987243446
481 1 -0.020671875 -0.00125 -0.027759375 0.49594638274
482 1 -0.020671875 -0.00125 -0.026578125 0.517344916833
483 1 -0.020671875 -0.00125 -0.025396875 0.550651156975
484 1 -0.020671875 -0.00125 -0.024215625 0.614546830411
485 1 -0.020671875 -0.00125 -0.023034375 0.653824890707
486 1 -0.020671875 -0.00125 -0.021853125 0.706575135143
487 1 -0.020671875 -0.00125 -0.020671875 0.746110339147
488 1 -0.020671875 -0.00125 -0.019490625 0.816183215908
489 1 -0.020671875 -0.00125 -0.018309375 0.918530088199
490 1 -0.020671875 -0.00125 -0.017128125 0.953205375329
491 1 -0.020671875 -0.00125 -0.015946875 0.939880122052
492 1 -0.020671875 -0.00125 -0.014765625 0.918133949562
493 1 -0.020671875 -0.00125 -0.013584375 0.851207196769
494 1 -0.020671875 -0.00125 -0.012403125 0.865471104627
495 1 -0.020671875 -0.00125 -0.011221875 0.716115333001
496 1 -0.020671875 -0.00125 -0.010040625 0.82788275166
497 1 -0.020671875 -0.00125 -0.008859375 0.839799812676
498 1 -0.020671875 -0.00125 -0.007678125 0.788861958649
499 1 -0.020671875 -0.00125 -0.006496875 0.766906724369
500 1 -0.020671875 -0.00125 -0.005315625 0.762161357582
501 1 -0.020671875 -0.00125 -0.004134375 0.576160271368
502 1 -0.020671875 -0.00125 -0.002953125 0.526806355666
503 1 -0.020671875 -0.00125 -0.001771875 0.464163017488
504 1 -0.020671875 -0.00125 -0.000590625 0.355646474932
505 1 -0.020671875 -0.00125 0.000590625 0.24275282802
506 1 -0.020671875 -0.00125 0.001771875 0.10483178049
507 1 -0.020671875 -0.00125 0.002953125 0.0341005404184
508 1 -0.020671875 -0.00125 0.004134375 0.0129019077734
509 1 -0.020671875 -0.00125 0.005315625 0.0121534703443
510 1 -0.020671875 -0.00125 0.006496875 0.0114653709432
511 1 -0.020671875 -0.00125 0.007678125 0.00369278144856
512 1 -0.020671875 -0.00125 0.008859375 0.00773637010436
513 1 -0.020671875 -0.00125 0.010040625 0.000533040995437
514 1 -0.020671875 -0.00125 0.011221875 0.00104543981317
515 1 -0.020671875 -0.00125 0.012403125 0.0025587867513
516 1 -0.020671875 -0.00125 0.013584375 0.00376996507335
517 1 -0.020671875 -0.00125 0.014765625 0.00985289742341
518 1 -0.020671875 -0.00125 0.015946875 0.0233173957437
519 1 -0.020671875 -0.00125 0.017128125 0.0010660147818
520 1 -0.020671875 -0.00125 0.018309375 0.000153460991567
521 1 -0.020671875 -0.00125 0.019490625 3.76114215896e-19
522 1 -0.020671875 -0.00125 0.020671875 7.65993558778e-146
523 1 -0.020671875 -0.00125 0.021853125 0.0
524 1 -0.020671875 -0.00125 0.023034375 2.51843602108e-166
525 1 -0.020671875 -0.00125 0.024215625 3.49665828854e-222
526 1 -0.020671875 -0.00125 0.025396875 8.57451489436e-243
527 1 -0.020671875 -0.00125 0.026578125 5.4495296448e-99
528 1 -0.020671875 -0.00125 0.027759375 7.7611348745e-80
529 1 -0.020671875 -0.00125 0.028940625 0.0
530 1 -0.020671875 -0.00125 0.030121875 0.0
531 1 -0.019490625 -0.00125 -0.031303125 0.0135735452974