ITEM: TIMESTEP
0
ITEM: NUMBER OF ATOMS
3080
ITEM: BOX BOUNDS ss ss ss
-3.7007399999999996e-02 3.7007399999999996e-02
-2.0002499999999999e-03 2.5000000000000004e-07
-3.7007399999999996e-02 3.7007399999999996e-02
ITEM: ATOMS id type x y z c_1
0 1 -0.037209375 -0.00125 -0.000590625 0.472587131952
1 1 -0.036028125 -0.00125 -0.007678125 0.000156370025266
2 1 -0.036028125 -0.00125 -0.006496875 1.92283597506e-06
3 1 -0.036028125 -0.00125 -0.005315625 3.5540421082e-09
4 1 -0.036028125 -0.00125 -0.004134375 2.81527082107e-07
5 1 -0.036028125 -0.00125 -0.002953125 0.0170181410782
6 1 -0.036028125 -0.00125 -0.001771875 0.120023478299
7 1 -0.036028125 -0.00125 -0.000590625 0.154058956837
8 1 -0.036028125 -0.00125 0.000590625 0.168603334638
9 1 -0.036028125 -0.00125 0.001771875 0.239566338535
10 1 -0.036028125 -0.00125 0.002953125 0.00714492780237
11 1 -0.036028125 -0.00125 0.004134375 3.97311123955e-06
12 1 -0.036028125 -0.00125 0.005315625 6.22250679894e-08
13 1 -0.036028125 -0.00125 0.006496875 3.98008039748e-06
14 1 -0.036028125 -0.00125 0.007678125 0.000175665743989
15 1 -0.034846875 -0.00125 -0.011221875 0.00749537978046
16 1 -0.034846875 -0.00125 -0.010040625 0.00805785492949
17 1 -0.034846875 -0.00125 -0.008859375 0.0882284198447
18 1 -0.034846875 -0.00125 -0.007678125 0.000132226611322
19 1 -0.034846875 -0.00125 -0.006496875 7.4847346129e-07
20 1 -0.034846875 -0.00125 -0.005315625 6.02484054903e-09
21 1 -0.034846875 -0.00125 -0.004134375 2.94512302325e-07
22 1 -0.034846875 -0.00125 -0.002953125 0.00987026420085
23 1 -0.034846875 -0.00125 -0.001771875 0.137161537082
24 1 -0.034846875 -0.00125 -0.000590625 0.198639782734
25 1 -0.034846875 -0.00125 0.000590625 0.268443495785
26 1 -0.034846875 -0.00125 0.001771875 0.235471332832
27 1 -0.034846875 -0.00125 0.002953125 0.0274857795495
28 1 -0.034846875 -0.00125 0.004134375 3.03386941591e-06
29 1 -0.034846875 -0.00125 0.005315625 1.3951607133e-09
30 1 -0.034846875 -0.00125 0.006496875 6.03198338717e-09
31 1 -0.034846875 -0.00125 0.007678125 0.00140379974105
32 1 -0.034846875 -0.00125 0.008859375 0.0872378254733
33 1 -0.034846875 -0.00125 0.010040625 0.00953837924197
34 1 -0.034846875 -0.00125 0.011221875 0.00850514176435
35 1 -0.033665625 -0.00125 -0.013584375 7.8113729601e-05
36 1 -0.033665625 -0.00125 -0.012403125 0.0671549560467
37 1 -0.033665625 -0.00125 -0.011221875 0.0200445809387
38 1 -0.033665625 -0.00125 -0.010040625 0.015937696485
39 1 -0.033665625 -0.00125 -0.008859375 0.0344365482349
40 1 -0.033665625 -0.00125 -0.007678125 0.000472215092509
41 1 -0.033665625 -0.00125 -0.006496875 9.26282654569e-06
42 1 -0.033665625 -0.00125 -0.005315625 9.6718736023e-08
43 1 -0.033665625 -0.00125 -0.004134375 0.0030006066942
44 1 -0.033665625 -0.00125 -0.002953125 0.0375500402451
45 1 -0.033665625 -0.00125 -0.001771875 0.159996061212
46 1 -0.033665625 -0.00125 -0.000590625 0.24621316107
47 1 -0.033665625 -0.00125 0.000590625 0.232684012796
48 1 -0.033665625 -0.00125 0.001771875 0.202940280976
49 1 -0.033665625 -0.00125 0.002953125 0.0555291107096
50 1 -0.033665625 -0.00125 0.004134375 3.26174336393e-05
51 1 -0.033665625 -0.00125 0.005315625 1.14929919287e-05
52 1 -0.033665625 -0.00125 0.006496875 2.38110612764e-05
53 1 -0.033665625 -0.00125 0.007678125 0.0103086574619
54 1 -0.033665625 -0.00125 0.008859375 0.0717609109944
55 1 -0.033665625 -0.00125 0.010040625 0.0169477080287
56 1 -0.033665625 -0.00125 0.011221875 0.0165306004561
57 1 -0.033665625 -0.00125 0.012403125 0.0614459418656
58 1 -0.033665625 -0.00125 0.013584375 0.000671108298161
59 1 -0.032484375 -0.00125 -0.018309375 0.000977514591786
60 1 -0.032484375 -0.00125 -0.017128125 0.0059522140808
61 1 -0.032484375 -0.00125 -0.015946875 0.00733213320386
62 1 -0.032484375 -0.00125 -0.014765625 0.000953501873733
63 1 -0.032484375 -0.00125 -0.013584375 0.000545173191133
64 1 -0.032484375 -0.00125 -0.012403125 0.0338430056868
65 1 -0.032484375 -0.00125 -0.011221875 0.0341551721322
66 1 -0.032484375 -0.00125 -0.010040625 0.0233077997867
67 1 -0.032484375 -0.00125 -0.008859375 0.0307731360375
68 1 -0.032484375 -0.00125 -0.007678125 0.000846251053451
69 1 -0.032484375 -0.00125 -0.006496875 2.96975185826e-06
70 1 -0.032484375 -0.00125 -0.005315625 1.11743473392e-06
71 1 -0.032484375 -0.00125 -0.004134375 0.00135429498592
72 1 -0.032484375 -0.00125 -0.002953125 0.0113105163905
73 1 -0.032484375 -0.00125 -0.001771875 0.0976474357412
74 1 -0.032484375 -0.00125 -0.000590625 0.187373006821
75 1 -0.032484375 -0.00125 0.000590625 0.19870389391
76 1 -0.032484375 -0.00125 0.001771875 0.107014737501
77 1 -0.032484375 -0.00125 0.002953125 0.019653951935
78 1 -0.032484375 -0.00125 0.004134375 0.000137093641778
79 1 -0.032484375 -0.00125 0.005315625 1.17340943298e-05
80 1 -0.032484375 -0.00125 0.006496875 1.08342924045e-05
81 1 -0.032484375 -0.00125 0.007678125 0.00639888497502
82 1 -0.032484375 -0.00125 0.008859375 0.0712736580154
83 1 -0.032484375 -0.00125 0.010040625 0.0609832085602
84 1 -0.032484375 -0.00125 0.011221875 0.0600763587741
85 1 -0.032484375 -0.00125 0.012403125 0.0536520460211
86 1 -0.032484375 -0.00125 0.013584375 0.000134991034578
87 1 -0.032484375 -0.00125 0.014765625 0.00491923871426
88 1 -0.032484375 -0.00125 0.015946875 0.00661402081735
89 1 -0.032484375 -0.00125 0.017128125 0.00441147219325
90 1 -0.032484375 -0.00125 0.018309375 0.00108837788218
91 1 -0.031303125 -0.00125 -0.019490625 0.000172478137147
92 1 -0.031303125 -0.00125 -0.018309375 0.00170023072607
93 1 -0.031303125 -0.00125 -0.017128125 0.0105216825268
94 1 -0.031303125 -0.00125 -0.015946875 0.00696380820086
95 1 -0.031303125 -0.00125 -0.014765625 0.00995199179577
96 1 -0.031303125 -0.00125 -0.013584375 0.00373870767082
97 1 -0.031303125 -0.00125 -0.012403125 0.0266102480051
98 1 -0.031303125 -0.00125 -0.011221875 0.0291548421221
99 1 -0.031303125 -0.00125 -0.010040625 0.0380763891343
100 1 -0.031303125 -0.00125 -0.008859375 0.00747780928271
101 1 -0.031303125 -0.00125 -0.007678125 0.000623828021362
102 1 -0.031303125 -0.00125 -0.006496875 0.000204249136633
103 1 -0.031303125 -0.00125 -0.005315625 0.000164269928748
104 1 -0.031303125 -0.00125 -0.004134375 0.000206857334047
105 1 -0.031303125 -0.00125 -0.002953125 0.00256392837065
106 1 -0.031303125 -0.00125 -0.001771875 0.0221734652345
107 1 -0.031303125 -0.00125 -0.000590625 0.0890330328731
108 1 -0.031303125 -0.00125 0.000590625 0.107392637561
109 1 -0.031303125 -0.00125 0.001771875 0.0420171251671
110 1 -0.031303125 -0.00125 0.002953125 0.0112000647661
111 1 -0.031303125 -0.00125 0.004134375 0.000576158431075
112 1 -0.031303125 -0.00125 0.005315625 0.00024611511333
113 1 -0.031303125 -0.00125 0.006496875 6.6222333029e-05
114 1 -0.031303125 -0.00125 0.007678125 0.00248268735073
115 1 -0.031303125 -0.00125 0.008859375 0.0126509542076
116 1 -0.031303125 -0.00125 0.010040625 0.0176414148466
117 1 -0.031303125 -0.00125 0.011221875 0.0305922398265
118 1 -0.031303125 -0.00125 0.012403125 0.0436422126075
119 1 -0.031303125 -0.00125 0.013584375 0.00632553730499
120 1 -0.031303125 -0.00125 0.014765625 0.0128776371861
121 1 -0.031303125 -0.00125 0.015946875 0.00997987371405
122 1 -0.031303125 -0.00125 0.017128125 0.0025113692421
123 1 -0.031303125 -0.00125 0.018309375 0.000725070647929
124 1 -0.031303125 -0.00125 0.019490625 9.3018195991e-06
125 1 -0.030121875 -0.00125 -0.020671875 4.79842239189e-07
126 1 -0.030121875 -0.00125 -0.019490625 2.41187198228e-05
127 1 -0.030121875 -0.00125 -0.018309375 0.0012854359529
128 1 -0.030121875 -0.00125 -0.017128125 0.00607492353286
129 1 -0.030121875 -0.00125 -0.015946875 0.0257200072672
130 1 -0.030121875 -0.00125 -0.014765625 0.0202500292185
131 1 -0.030121875 -0.00125 -0.013584375 0.0331725604289
132 1 -0.030121875 -0.00125 -0.012403125 0.0286944883831
133 1 -0.030121875 -0.00125 -0.011221875 0.006244826161
134 1 -0.030121875 -0.00125 -0.010040625 0.00236462437082
135 1 -0.030121875 -0.00125 -0.008859375 0.000589323359264
136 1 -0.030121875 -0.00125 -0.007678125 9.82185293969e-05
137 1 -0.030121875 -0.00125 -0.006496875 4.25030130232e-06
138 1 -0.030121875 -0.00125 -0.005315625 5.43058876133e-05
139 1 -0.030121875 -0.00125 -0.004134375 2.07526930097e-05
140 1 -0.030121875 -0.00125 -0.002953125 0.000287865546134
141 1 -0.030121875 -0.00125 -0.001771875 0.0114476845861
142 1 -0.030121875 -0.00125 -0.000590625 0.0204402491547
143 1 -0.030121875 -0.00125 0.000590625 0.0262839109142
144 1 -0.030121875 -0.00125 0.001771875 0.00657698151682
145 1 -0.030121875 -0.00125 0.002953125 0.00283757845385
146 1 -0.030121875 -0.00125 0.004134375 0.000170011558825
147 1 -0.030121875 -0.00125 0.005315625 0.000463478442601
148 1 -0.030121875 -0.00125 0.006496875 0.000141149547055
149 1 -0.030121875 -0.00125 0.007678125 0.000941766939424
150 1 -0.030121875 -0.00125 0.008859375 0.0018310453434
151 1 -0.030121875 -0.00125 0.010040625 0.00916647770207
152 1 -0.030121875 -0.00125 0.011221875 0.00954008036731
153 1 -0.030121875 -0.00125 0.012403125 0.0427627103078
154 1 -0.030121875 -0.00125 0.013584375 0.0260320816947
155 1 -0.030121875 -0.00125 0.014765625 0.0288419729047
156 1 -0.030121875 -0.00125 0.015946875 0.0162357138785
157 1 -0.030121875 -0.00125 0.017128125 0.00695288080241
158 1 -0.030121875 -0.00125 0.018309375 0.000876533666179
159 1 -0.030121875 -0.00125 0.019490625 3.80051877031e-06
160 1 -0.030121875 -0.00125 0.020671875 2.19260245713e-10
161 1 -0.028940625 -0.00125 -0.021853125 0.00125523333309
162 1 -0.028940625 -0.00125 -0.020671875 0.00017439498852
163 1 -0.028940625 -0.00125 -0.019490625 0.000306086583602
164 1 -0.028940625 -0.00125 -0.018309375 0.00356399628107
165 1 -0.028940625 -0.00125 -0.017128125 0.0144817980515
166 1 -0.028940625 -0.00125 -0.015946875 0.0273736152963
167 1 -0.028940625 -0.00125 -0.014765625 0.050565536602
168 1 -0.028940625 -0.00125 -0.013584375 0.0253742792328
169 1 -0.028940625 -0.00125 -0.012403125 0.0102917287782
170 1 -0.028940625 -0.00125 -0.011221875 0.00681366812034
171 1 -0.028940625 -0.00125 -0.010040625 0.000500085748624
172 1 -0.028940625 -0.00125 -0.008859375 3.59629602587e-05
173 1 -0.028940625 -0.00125 -0.007678125 1.33495536853e-05
174 1 -0.028940625 -0.00125 -0.006496875 3.27782771138e-05
175 1 -0.028940625 -0.00125 -0.005315625 1.04115215624e-05
176 1 -0.028940625 -0.00125 -0.004134375 0.000216719955619
177 1 -0.028940625 -0.00125 -0.002953125 0.000815252657199
178 1 -0.028940625 -0.00125 -0.001771875 0.00221489630937
179 1 -0.028940625 -0.00125 -0.000590625 0.0112995700102
180 1 -0.028940625 -0.00125 0.000590625 0.00106622825099
181 1 -0.028940625 -0.00125 0.001771875 0.000171621113706
182 1 -0.028940625 -0.00125 0.002953125 0.000298615246385
183 1 -0.028940625 -0.00125 0.004134375 0.000183143985561
184 1 -0.028940625 -0.00125 0.005315625 0.000159585493368
185 1 -0.028940625 -0.00125 0.006496875 0.00074530166756
186 1 -0.028940625 -0.00125 0.007678125 0.000148872811175
187 1 -0.028940625 -0.00125 0.008859375 3.18035167133e-05
188 1 -0.028940625 -0.00125 0.010040625 0.000230433544818
189 1 -0.028940625 -0.00125 0.011221875 0.00278350906153
190 1 -0.028940625 -0.00125 0.012403125 0.00777916937669
191 1 -0.028940625 -0.00125 0.013584375 0.010582340404
192 1 -0.028940625 -0.00125 0.014765625 0.0141322528091
193 1 -0.028940625 -0.00125 0.015946875 0.0148270235594
194 1 -0.028940625 -0.00125 0.017128125 0.00780885771034
195 1 -0.028940625 -0.00125 0.018309375 0.00182439152229
196 1 -0.028940625 -0.00125 0.019490625 2.31126603679e-06
197 1 -0.028940625 -0.00125 0.020671875 1.92551786067e-07
198 1 -0.028940625 -0.00125 0.021853125 5.99869381755e-05
199 1 -0.027759375 -0.00125 -0.024215625 1.27280693835e-07
200 1 -0.027759375 -0.00125 -0.023034375 0.000133755685405
201 1 -0.027759375 -0.00125 -0.021853125 0.00410891913006
202 1 -0.027759375 -0.00125 -0.020671875 2.38845837534e-05
203 1 -0.027759375 -0.00125 -0.019490625 7.11533704431e-05
204 1 -0.027759375 -0.00125 -0.018309375 0.00787681342621
205 1 -0.027759375 -0.00125 -0.017128125 0.0447317751152
206 1 -0.027759375 -0.00125 -0.015946875 0.0242340998134
207 1 -0.027759375 -0.00125 -0.014765625 0.0554730502259
208 1 -0.027759375 -0.00125 -0.013584375 0.0286532497416
209 1 -0.027759375 -0.00125 -0.012403125 0.0221392243037
210 1 -0.027759375 -0.00125 -0.011221875 0.0118437520398
211 1 -0.027759375 -0.00125 -0.010040625 0.00142611101299
212 1 -0.027759375 -0.00125 -0.008859375 0.00017040789672
213 1 -0.027759375 -0.00125 -0.007678125 0.000119547345958
214 1 -0.027759375 -0.00125 -0.006496875 3.61579366236e-05
215 1 -0.027759375 -0.00125 -0.005315625 0.000134926368639
216 1 -0.027759375 -0.00125 -0.004134375 0.00049566485381
217 1 -0.027759375 -0.00125 -0.002953125 0.00169763990141
218 1 -0.027759375 -0.00125 -0.001771875 0.00401161880151
219 1 -0.027759375 -0.00125 -0.000590625 0.0183930084629
220 1 -0.027759375 -0.00125 0.000590625 0.0126387803226
221 1 -0.027759375 -0.00125 0.001771875 0.00622807901153
222 1 -0.027759375 -0.00125 0.002953125 0.00228051730555
223 1 -0.027759375 -0.00125 0.004134375 0.000282048623199
224 1 -0.027759375 -0.00125 0.005315625 0.000395575488684
225 1 -0.027759375 -0.00125 0.006496875 0.000565748538678
226 1 -0.027759375 -0.00125 0.007678125 0.000384461747586
227 1 -0.027759375 -0.00125 0.008859375 0.000682606549264
228 1 -0.027759375 -0.00125 0.010040625 0.00119616437962
229 1 -0.027759375 -0.00125 0.011221875 0.00348769612927
230 1 -0.027759375 -0.00125 0.012403125 0.0184956763069
231 1 -0.027759375 -0.00125 0.013584375 0.0258035961597
232 1 -0.027759375 -0.00125 0.014765625 0.0541220175615
233 1 -0.027759375 -0.00125 0.015946875 0.00782776851014
234 1 -0.027759375 -0.00125 0.017128125 0.00983162741547
235 1 -0.027759375 -0.00125 0.018309375 0.00184640210236
236 1 -0.027759375 -0.00125 0.019490625 1.76122280728e-05
237 1 -0.027759375 -0.00125 0.020671875 2.75147920206e-05
238 1 -0.027759375 -0.00125 0.021853125 4.60105207828e-05
239 1 -0.027759375 -0.00125 0.023034375 1.14539205033e-06
240 1 -0.027759375 -0.00125 0.024215625 1.28160517756e-12
241 1 -0.026578125 -0.00125 -0.026578125 1.75404984116e-08
242 1 -0.026578125 -0.00125 -0.025396875 1.50559421944e-08
243 1 -0.026578125 -0.00125 -0.024215625 5.20836963359e-08
244 1 -0.026578125 -0.00125 -0.023034375 1.32949204861e-06
245 1 -0.026578125 -0.00125 -0.021853125 6.21457611384e-05
246 1 -0.026578125 -0.00125 -0.020671875 0.000246650485502
247 1 -0.026578125 -0.00125 -0.019490625 0.000764829959215
248 1 -0.026578125 -0.00125 -0.018309375 0.00573639512415
249 1 -0.026578125 -0.00125 -0.017128125 0.0350906302998
250 1 -0.026578125 -0.00125 -0.015946875 0.0580234302625
251 1 -0.026578125 -0.00125 -0.014765625 0.0401670183127
252 1 -0.026578125 -0.00125 -0.013584375 0.0488766816513
253 1 -0.026578125 -0.00125 -0.012403125 0.0215630450657
254 1 -0.026578125 -0.00125 -0.011221875 0.0119972168837
255 1 -0.026578125 -0.00125 -0.010040625 0.00124087175556
256 1 -0.026578125 -0.00125 -0.008859375 0.0011959928898
257 1 -0.026578125 -0.00125 -0.007678125 0.000586682233317
258 1 -0.026578125 -0.00125 -0.006496875 0.000759291910891
259 1 -0.026578125 -0.00125 -0.005315625 0.0019556090532
260 1 -0.026578125 -0.00125 -0.004134375 0.00605604466337
261 1 -0.026578125 -0.00125 -0.002953125 0.00545905382916
262 1 -0.026578125 -0.00125 -0.001771875 0.013699804592
263 1 -0.026578125 -0.00125 -0.000590625 0.033679194747
264 1 -0.026578125 -0.00125 0.000590625 0.0374456558709
265 1 -0.026578125 -0.00125 0.001771875 0.0270164380512
266 1 -0.026578125 -0.00125 0.002953125 0.0266759004749
267 1 -0.026578125 -0.00125 0.004134375 0.00788702432227
268 1 -0.026578125 -0.00125 0.005315625 0.00547957406122
269 1 -0.026578125 -0.00125 0.006496875 0.000216430530227
270 1 -0.026578125 -0.00125 0.007678125 0.000347071917142
271 1 -0.026578125 -0.00125 0.008859375 0.000911878625668
272 1 -0.026578125 -0.00125 0.010040625 0.00488008566016
273 1 -0.026578125 -0.00125 0.011221875 0.0133046453976
274 1 -0.026578125 -0.00125 0.012403125 0.015840438433
275 1 -0.026578125 -0.00125 0.013584375 0.0431894667932
276 1 -0.026578125 -0.00125 0.014765625 0.0415360320572
277 1 -0.026578125 -0.00125 0.015946875 0.0398705594258
278 1 -0.026578125 -0.00125 0.017128125 0.0346574584956
279 1 -0.026578125 -0.00125 0.018309375 0.0099324551471
280 1 -0.026578125 -0.00125 0.019490625 0.000681616037666
281 1 -0.026578125 -0.00125 0.020671875 0.000248981749985
282 1 -0.026578125 -0.00125 0.021853125 6.24667847484e-06
283 1 -0.026578125 -0.00125 0.023034375 2.8757902146e-09
284 1 -0.026578125 -0.00125 0.024215625 3.84606123264e-09
285 1 -0.026578125 -0.00125 0.025396875 3.02675131196e-09
286 1 -0.026578125 -0.00125 0.026578125 8.82956438161e-10
287 1 -0.025396875 -0.00125 -0.026578125 4.82428321055e-12
288 1 -0.025396875 -0.00125 -0.025396875 5.39333907053e-07
289 1 -0.025396875 -0.00125 -0.024215625 1.70479160231e-05
290 1 -0.025396875 -0.00125 -0.023034375 4.39219351273e-05
291 1 -0.025396875 -0.00125 -0.021853125 0.00010534469336
292 1 -0.025396875 -0.00125 -0.020671875 0.000405508370743
293 1 -0.025396875 -0.00125 -0.019490625 0.00129415276686
294 1 -0.025396875 -0.00125 -0.018309375 0.00784913232731
295 1 -0.025396875 -0.00125 -0.017128125 0.0376040875448
296 1 -0.025396875 -0.00125 -0.015946875 0.056186150412
297 1 -0.025396875 -0.00125 -0.014765625 0.0786226023213
298 1 -0.025396875 -0.00125 -0.013584375 0.101106305608
299 1 -0.025396875 -0.00125 -0.012403125 0.0598780117883
300 1 -0.025396875 -0.00125 -0.011221875 0.0636009749245
301 1 -0.025396875 -0.00125 -0.010040625 0.0124972205433
302 1 -0.025396875 -0.00125 -0.008859375 0.0113313726
303 1 -0.025396875 -0.00125 -0.007678125 0.000502823896468
304 1 -0.025396875 -0.00125 -0.006496875 0.00669552692107
305 1 -0.025396875 -0.00125 -0.005315625 0.0172920826948
306 1 -0.025396875 -0.00125 -0.004134375 0.0108711952684
307 1 -0.025396875 -0.00125 -0.002953125 0.00527880631414
308 1 -0.025396875 -0.00125 -0.001771875 0.00898390713371
309 1 -0.025396875 -0.00125 -0.000590625 0.0260771098218
310 1 -0.025396875 -0.00125 0.000590625 0.0561544759593
311 1 -0.025396875 -0.00125 0.001771875 0.0377026221184
312 1 -0.025396875 -0.00125 0.002953125 0.0300849151395
313 1 -0.025396875 -0.00125 0.004134375 0.0121902232371
314 1 -0.025396875 -0.00125 0.005315625 0.0235140003751
315 1 -0.025396875 -0.00125 0.006496875 0.0108885455144
316 1 -0.025396875 -0.00125 0.007678125 0.00745478165228
317 1 -0.025396875 -0.00125 0.008859375 0.00830285640609
318 1 -0.025396875 -0.00125 0.010040625 0.00650306264221
319 1 -0.025396875 -0.00125 0.011221875 0.00792774835534
320 1 -0.025396875 -0.00125 0.012403125 0.0379422201363
321 1 -0.025396875 -0.00125 0.013584375 0.0620735856607
322 1 -0.025396875 -0.00125 0.014765625 0.107117342015
323 1 -0.025396875 -0.00125 0.015946875 0.0740005423832
324 1 -0.025396875 -0.00125 0.017128125 0.0468526049982
325 1 -0.025396875 -0.00125 0.018309375 0.0134369576106
326 1 -0.025396875 -0.00125 0.019490625 0.000632166250291
327 1 -0.025396875 -0.00125 0.020671875 0.000818663334074
328 1 -0.025396875 -0.00125 0.021853125 7.798611691e-05
329 1 -0.025396875 -0.00125 0.023034375 8.33077551369e-05
330 1 -0.025396875 -0.00125 0.024215625 2.21659762229e-06
331 1 -0.025396875 -0.00125 0.025396875 9.02596813115e-06
332 1 -0.025396875 -0.00125 0.026578125 1.98332254598e-16
333 1 -0.024215625 -0.00125 -0.027759375 2.89064736984e-08
334 1 -0.024215625 -0.00125 -0.026578125 1.7171685733e-05
335 1 -0.024215625 -0.00125 -0.025396875 6.64881963349e-05
336 1 -0.024215625 -0.00125 -0.024215625 0.00178997080358
337 1 -0.024215625 -0.00125 -0.023034375 0.00245197344523
338 1 -0.024215625 -0.00125 -0.021853125 0.00256465670554
339 1 -0.024215625 -0.00125 -0.020671875 0.00407746494731
340 1 -0.024215625 -0.00125 -0.019490625 0.00498659777727
341 1 -0.024215625 -0.00125 -0.018309375 0.00911711908392
342 1 -0.024215625 -0.00125 -0.017128125 0.0392257676492
343 1 -0.024215625 -0.00125 -0.015946875 0.0681178252054
344 1 -0.024215625 -0.00125 -0.014765625 0.0922366774022
345 1 -0.024215625 -0.00125 -0.013584375 0.0729626984254
346 1 -0.024215625 -0.00125 -0.012403125 0.0653560902225
347 1 -0.024215625 -0.00125 -0.011221875 0.0504942403974
348 1 -0.024215625 -0.00125 -0.010040625 0.0186443442453
349 1 -0.024215625 -0.00125 -0.008859375 0.0111904002201
350 1 -0.024215625 -0.00125 -0.007678125 0.00240673843681
351 1 -0.024215625 -0.00125 -0.006496875 0.0108789731882
352 1 -0.024215625 -0.00125 -0.005315625 0.0224676437843
353 1 -0.024215625 -0.00125 -0.004134375 0.0217213778661
354 1 -0.024215625 -0.00125 -0.002953125 0.0288920751855
355 1 -0.024215625 -0.00125 -0.001771875 0.0334329177677
356 1 -0.024215625 -0.00125 -0.000590625 0.0266907568317
357 1 -0.024215625 -0.00125 0.000590625 0.0392694875473
358 1 -0.024215625 -0.00125 0.001771875 0.0510265894383
359 1 -0.024215625 -0.00125 0.002953125 0.0216077112903
360 1 -0.024215625 -0.00125 0.004134375 0.0209813998787
361 1 -0.024215625 -0.00125 0.005315625 0.0271226363647
362 1 -0.024215625 -0.00125 0.006496875 0.0350054576101
363 1 -0.024215625 -0.00125 0.007678125 0.0289938054436
364 1 -0.024215625 -0.00125 0.008859375 0.0110628781397
365 1 -0.024215625 -0.00125 0.010040625 0.0334415153856
366 1 -0.024215625 -0.00125 0.011221875 0.0410975733947
367 1 -0.024215625 -0.00125 0.012403125 0.0705365451233
368 1 -0.024215625 -0.00125 0.013584375 0.094731281816
369 1 -0.024215625 -0.00125 0.014765625 0.115608000941
370 1 -0.024215625 -0.00125 0.015946875 0.133897799998
371 1 -0.024215625 -0.00125 0.017128125 0.0710656106131
372 1 -0.024215625 -0.00125 0.018309375 0.0168050677258
373 1 -0.024215625 -0.00125 0.019490625 0.00259740278848
374 1 -0.024215625 -0.00125 0.020671875 0.00184297296637
375 1 -0.024215625 -0.00125 0.021853125 0.00210585345343
376 1 -0.024215625 -0.00125 0.023034375 0.00039860519977
377 1 -0.024215625 -0.00125 0.024215625 2.18976305767e-05
378 1 -0.024215625 -0.00125 0.025396875 4.67816780703e-05
379 1 -0.024215625 -0.00125 0.026578125 2.03334306528e-06
380 1 -0.024215625 -0.00125 0.027759375 1.16100460608e-09
381 1 -0.023034375 -0.00125 -0.027759375 8.35734487974e-06
382 1 -0.023034375 -0.00125 -0.026578125 0.000406257214359
383 1 -0.023034375 -0.00125 -0.025396875 0.00671639500198
384 1 -0.023034375 -0.00125 -0.024215625 0.00518386737977
385 1 -0.023034375 -0.00125 -0.023034375 0.0118112857986
386 1 -0.023034375 -0.00125 -0.021853125 0.00352215167
387 1 -0.023034375 -0.00125 -0.020671875 0.00689124482807
388 1 -0.023034375 -0.00125 -0.019490625 0.00692688050537
389 1 -0.023034375 -0.00125 -0.018309375 0.0105236104952
390 1 -0.023034375 -0.00125 -0.017128125 0.0342192623461
391 1 -0.023034375 -0.00125 -0.015946875 0.0698798497249
392 1 -0.023034375 -0.00125 -0.014765625 0.084810464551
393 1 -0.023034375 -0.00125 -0.013584375 0.134761731377
394 1 -0.023034375 -0.00125 -0.012403125 0.0926362051301
395 1 -0.023034375 -0.00125 -0.011221875 0.0814417204168
396 1 -0.023034375 -0.00125 -0.010040625 0.0610493669312
397 1 -0.023034375 -0.00125 -0.008859375 0.0659132946003
398 1 -0.023034375 -0.00125 -0.007678125 0.0384573016378
399 1 -0.023034375 -0.00125 -0.006496875 0.0281628461341
400 1 -0.023034375 -0.00125 -0.005315625 0.0405591707456
401 1 -0.023034375 -0.00125 -0.004134375 0.0292230554593
402 1 -0.023034375 -0.00125 -0.002953125 0.0578419115838
403 1 -0.023034375 -0.00125 -0.001771875 0.0393167122987
404 1 -0.023034375 -0.00125 -0.000590625 0.0270158058451
405 1 -0.023034375 -0.00125 0.000590625 0.0696302896116
406 1 -0.023034375 -0.00125 0.001771875 0.0914971575045
407 1 -0.023034375 -0.00125 0.002953125 0.0627691379933
408 1 -0.023034375 -0.00125 0.004134375 0.0446637521468
409 1 -0.023034375 -0.00125 0.005315625 0.072789691223
410 1 -0.023034375 -0.00125 0.006496875 0.0690936845436
411 1 -0.023034375 -0.00125 0.007678125 0.0596036763926
412 1 -0.023034375 -0.00125 0.008859375 0.0418179071057
413 1 -0.023034375 -0.00125 0.010040625 0.061267321298
414 1 -0.023034375 -0.00125 0.011221875 0.0639560935475
415 1 -0.023034375 -0.00125 0.012403125 0.0821996659228
416 1 -0.023034375 -0.00125 0.013584375 0.125881783298
417 1 -0.023034375 -0.00125 0.014765625 0.19356502203
418 1 -0.023034375 -0.00125 0.015946875 0.172863714609
419 1 -0.023034375 -0.00125 0.017128125 0.0787377297317
420 1 -0.023034375 -0.00125 0.018309375 0.0228674860568
421 1 -0.023034375 -0.00125 0.019490625 0.00734428749271
422 1 -0.023034375 -0.00125 0.020671875 0.0119907489326
423 1 -0.023034375 -0.00125 0.021853125 0.0153509834631
424 1 -0.023034375 -0.00125 0.023034375 0.00889820187042
425 1 -0.023034375 -0.00125 0.024215625 0.00544837466679
426 1 -0.023034375 -0.00125 0.025396875 0.00440980361172
427 1 -0.023034375 -0.00125 0.026578125 0.000554248908462
428 1 -0.023034375 -0.00125 0.027759375 0.00048391107204
429 1 -0.021853125 -0.00125 -0.028940625 0.00402273647018
430 1 -0.021853125 -0.00125 -0.027759375 0.00997875192824
431 1 -0.021853125 -0.00125 -0.026578125 0.00100846056723
432 1 -0.021853125 -0.00125 -0.025396875 0.00286175076277
433 1 -0.021853125 -0.00125 -0.024215625 0.0146500125503
434 1 -0.021853125 -0.00125 -0.023034375 0.007659366222
435 1 -0.021853125 -0.00125 -0.021853125 0.0112757852659
436 1 -0.021853125 -0.00125 -0.020671875 0.0152225128688
437 1 -0.021853125 -0.00125 -0.019490625 0.0127944865293
438 1 -0.021853125 -0.00125 -0.018309375 0.0350248635544
439 1 -0.021853125 -0.00125 -0.017128125 0.0505604253006
440 1 -0.021853125 -0.00125 -0.015946875 0.09195748047
441 1 -0.021853125 -0.00125 -0.014765625 0.129001524076
442 1 -0.021853125 -0.00125 -0.013584375 0.13482165699
443 1 -0.021853125 -0.00125 -0.012403125 0.162408619695
444 1 -0.021853125 -0.00125 -0.011221875 0.126329556219
445 1 -0.021853125 -0.00125 -0.010040625 0.112826345895
446 1 -0.021853125 -0.00125 -0.008859375 0.0885699213196
447 1 -0.021853125 -0.00125 -0.007678125 0.0874829151788
448 1 -0.021853125 -0.00125 -0.006496875 0.0650730642917
449 1 -0.021853125 -0.00125 -0.005315625 0.0985144250311
450 1 -0.021853125 -0.00125 -0.004134375 0.104364877479
451 1 -0.021853125 -0.00125 -0.002953125 0.140844911939
452 1 -0.021853125 -0.00125 -0.001771875 0.0854674243746
453 1 -0.021853125 -0.00125 -0.000590625 0.047286748244
454 1 -0.021853125 -0.00125 0.000590625 0.061533374251
455 1 -0.021853125 -0.00125 0.001771875 0.0819930242126
456 1 -0.021853125 -0.00125 0.002953125 0.106497006227
457 1 -0.021853125 -0.00125 0.004134375 0.0919226131513
458 1 -0.021853125 -0.00125 0.005315625 0.105913404145
459 1 -0.021853125 -0.00125 0.006496875 0.0660558334824
460 1 -0.021853125 -0.00125 0.007678125 0.071327505365
461 1 -0.021853125 -0.00125 0.008859375 0.0819359894635
462 1 -0.021853125 -0.00125 0.010040625 0.0985008626564
463 1 -0.021853125 -0.00125 0.011221875 0.091337776033
464 1 -0.021853125 -0.00125 0.012403125 0.134642023664
465 1 -0.021853125 -0.00125 0.013584375 0.197525546015
466 1 -0.021853125 -0.00125 0.014765625 0.193154958987
467 1 -0.021853125 -0.00125 0.015946875 0.177426645484
468 1 -0.021853125 -0.00125 0.017128125 0.0909095040659
469 1 -0.021853125 -0.00125 0.018309375 0.0326002207012
470 1 -0.021853125 -0.00125 0.019490625 0.0310469376548
471 1 -0.021853125 -0.00125 0.020671875 0.0102661609627
472 1 -0.021853125 -0.00125 0.021853125 0.0185934036207
473 1 -0.021853125 -0.00125 0.023034375 0.0250149528852
474 1 -0.021853125 -0.00125 0.024215625 0.015247836197
475 1 -0.021853125 -0.00125 0.025396875 0.0156433295565
476 1 -0.021853125 -0.00125 0.026578125 0.00800912847957
477 1 -0.021853125 -0.00125 0.027759375 0.0161131949593
478 1 -0.021853125 -0.00125 0.028940625 0.0183537443064
479 1 -0.020671875 -0.00125 -0.030121875 3.46380417146e-05
480 1 -0.020671875 -0.00125 -0.028940625 0.000193404861565
481 1 -0.020671875 -0.00125 -0.027759375 0.00685384853673
482 1 -0.020671875 -0.00125 -0.026578125 0.00414063316773
483 1 -0.020671875 -0.00125 -0.025396875 0.00498440215336
484 1 -0.020671875 -0.00125 -0.024215625 0.0045236195235
485 1 -0.020671875 -0.00125 -0.023034375 0.0262767423219
486 1 -0.020671875 -0.00125 -0.021853125 0.0209930873535
487 1 -0.020671875 -0.00125 -0.020671875 0.039988117031
488 1 -0.020671875 -0.00125 -0.019490625 0.0578780601378
489 1 -0.020671875 -0.00125 -0.018309375 0.0596554738525
490 1 -0.020671875 -0.00125 -0.017128125 0.0855718321737
491 1 -0.020671875 -0.00125 -0.015946875 0.132267353787
492 1 -0.020671875 -0.00125 -0.014765625 0.14506296639
493 1 -0.020671875 -0.00125 -0.013584375 0.223845108083
494 1 -0.020671875 -0.00125 -0.012403125 0.217439142649
495 1 -0.020671875 -0.00125 -0.011221875 0.245893635841
496 1 -0.020671875 -0.00125 -0.010040625 0.198862968297
497 1 -0.020671875 -0.00125 -0.008859375 0.193589371245
498 1 -0.020671875 -0.00125 -0.007678125 0.114895535304
499 1 -0.020671875 -0.00125 -0.006496875 0.101590232375
500 1 -0.020671875 -0.00125 -0.005315625 0.113320387988
501 1 -0.020671875 -0.00125 -0.004134375 0.137700991485
502 1 -0.020671875 -0.00125 -0.002953125 0.12853595331
503 1 -0.020671875 -0.00125 -0.001771875 0.109069134119
504 1 -0.020671875 -0.00125 -0.000590625 0.0675856632092
505 1 -0.020671875 -0.00125 0.000590625 0.0758400129388
506 1 -0.020671875 -0.00125 0.001771875 0.0817053693509
507 1 -0.020671875 -0.00125 0.002953125 0.11068168156
508 1 -0.020671875 -0.00125 0.004134375 0.116725973169
509 1 -0.020671875 -0.00125 0.005315625 0.118479346192
510 1 -0.020671875 -0.00125 0.006496875 0.130875011034
511 1 -0.020671875 -0.00125 0.007678125 0.115432484767
512 1 -0.020671875 -0.00125 0.008859375 0.137474633526
513 1 -0.020671875 -0.00125 0.010040625 0.132577543292
514 1 -0.020671875 -0.00125 0.011221875 0.175503587412
515 1 -0.020671875 -0.00125 0.012403125 0.22894882425
516 1 -0.020671875 -0.00125 0.013584375 0.246209830074
517 1 -0.020671875 -0.00125 0.014765625 0.248600350592
518 1 -0.020671875 -0.00125 0.015946875 0.198438831836
519 1 -0.020671875 -0.00125 0.017128125 0.122795214547
520 1 -0.020671875 -0.00125 0.018309375 0.0748428180996
521 1 -0.020671875 -0.00125 0.019490625 0.0587320284983
522 1 -0.020671875 -0.00125 0.020671875 0.0504661846309