ITEM: TIMESTEP
0
ITEM: NUMBER OF ATOMS
3080
ITEM: BOX BOUNDS ss ss ss
-3.7007399999999996e-02 3.7007399999999996e-02
-2.0002499999999999e-03 2.5000000000000004e-07
-3.7007399999999996e-02 3.7007399999999996e-02
ITEM: ATOMS id type x y z c_1
0 1 -0.037209375 -0.00125 -0.000590625 0.995566159354
1 1 -0.036028125 -0.00125 -0.007678125 0.00984772568285
2 1 -0.036028125 -0.00125 -0.006496875 0.000307042796182
3 1 -0.036028125 -0.00125 -0.005315625 0.000682652157702
4 1 -0.036028125 -0.00125 -0.004134375 0.0115939189404
5 1 -0.036028125 -0.00125 -0.002953125 0.0643630378716
6 1 -0.036028125 -0.00125 -0.001771875 0.111724111389
7 1 -0.036028125 -0.00125 -0.000590625 0.0359768321401
8 1 -0.036028125 -0.00125 0.000590625 3.46402608248e-05
9 1 -0.036028125 -0.00125 0.001771875 4.44124537639e-05
10 1 -0.036028125 -0.00125 0.002953125 1.46634816463e-08
11 1 -0.036028125 -0.00125 0.004134375 1.98969795209e-06
12 1 -0.036028125 -0.00125 0.005315625 3.13798388698e-05
13 1 -0.036028125 -0.00125 0.006496875 4.26048238461e-05
14 1 -0.036028125 -0.00125 0.007678125 0.000925103148433
15 1 -0.034846875 -0.00125 -0.011221875 0.0306031421325
16 1 -0.034846875 -0.00125 -0.010040625 0.0195778196803
17 1 -0.034846875 -0.00125 -0.008859375 0.0992660397792
18 1 -0.034846875 -0.00125 -0.007678125 0.000975853357554
19 1 -0.034846875 -0.00125 -0.006496875 0.000482396239684
20 1 -0.034846875 -0.00125 -0.005315625 0.00104023452492
21 1 -0.034846875 -0.00125 -0.004134375 0.00613614846265
22 1 -0.034846875 -0.00125 -0.002953125 0.0839178455047
23 1 -0.034846875 -0.00125 -0.001771875 0.0658981799946
24 1 -0.034846875 -0.00125 -0.000590625 0.0279361734765
25 1 -0.034846875 -0.00125 0.000590625 0.000118925303276
26 1 -0.034846875 -0.00125 0.001771875 1.55438110494e-06
27 1 -0.034846875 -0.00125 0.002953125 8.41692611932e-10
28 1 -0.034846875 -0.00125 0.004134375 3.73431769419e-07
29 1 -0.034846875 -0.00125 0.005315625 0.000252899933979
30 1 -0.034846875 -0.00125 0.006496875 0.000109198997002
31 1 -0.034846875 -0.00125 0.007678125 0.00352572712129
32 1 -0.034846875 -0.00125 0.008859375 0.0299177292507
33 1 -0.034846875 -0.00125 0.010040625 0.00938315973743
34 1 -0.034846875 -0.00125 0.011221875 0.000163377323824
35 1 -0.033665625 -0.00125 -0.013584375 0.0283407333441
36 1 -0.033665625 -0.00125 -0.012403125 0.134523849957
37 1 -0.033665625 -0.00125 -0.011221875 0.048224707502
38 1 -0.033665625 -0.00125 -0.010040625 0.0532334060587
39 1 -0.033665625 -0.00125 -0.008859375 0.0572927215573
40 1 -0.033665625 -0.00125 -0.007678125 0.0120134351081
41 1 -0.033665625 -0.00125 -0.006496875 0.00731056404386
42 1 -0.033665625 -0.00125 -0.005315625 0.002050121685
43 1 -0.033665625 -0.00125 -0.004134375 0.0413367364996
44 1 -0.033665625 -0.00125 -0.002953125 0.0505556964949
45 1 -0.033665625 -0.00125 -0.001771875 0.0853825351949
46 1 -0.033665625 -0.00125 -0.000590625 0.114783226002
47 1 -0.033665625 -0.00125 0.000590625 0.00605506356152
48 1 -0.033665625 -0.00125 0.001771875 6.82755538879e-05
49 1 -0.033665625 -0.00125 0.002953125 4.95168666077e-05
50 1 -0.033665625 -0.00125 0.004134375 7.10844217014e-05
51 1 -0.033665625 -0.00125 0.005315625 7.45464695591e-05
52 1 -0.033665625 -0.00125 0.006496875 0.000435806022751
53 1 -0.033665625 -0.00125 0.007678125 0.00349178229947
54 1 -0.033665625 -0.00125 0.008859375 0.0144325861494
55 1 -0.033665625 -0.00125 0.010040625 0.0055344447991
56 1 -0.033665625 -0.00125 0.011221875 0.00606431837111
57 1 -0.033665625 -0.00125 0.012403125 0.0132186944053
58 1 -0.033665625 -0.00125 0.013584375 0.000183437534001
59 1 -0.032484375 -0.00125 -0.018309375 0.0802385333589
60 1 -0.032484375 -0.00125 -0.017128125 0.152557792431
61 1 -0.032484375 -0.00125 -0.015946875 0.197090207935
62 1 -0.032484375 -0.00125 -0.014765625 0.182989885495
63 1 -0.032484375 -0.00125 -0.013584375 0.0705239467244
64 1 -0.032484375 -0.00125 -0.012403125 0.225148001721
65 1 -0.032484375 -0.00125 -0.011221875 0.185299824457
66 1 -0.032484375 -0.00125 -0.010040625 0.198423726449
67 1 -0.032484375 -0.00125 -0.008859375 0.264889467808
68 1 -0.032484375 -0.00125 -0.007678125 0.141214607505
69 1 -0.032484375 -0.00125 -0.006496875 0.0412182153544
70 1 -0.032484375 -0.00125 -0.005315625 0.11207899285
71 1 -0.032484375 -0.00125 -0.004134375 0.121609552693
72 1 -0.032484375 -0.00125 -0.002953125 0.123271700655
73 1 -0.032484375 -0.00125 -0.001771875 0.230902106646
74 1 -0.032484375 -0.00125 -0.000590625 0.278471295368
75 1 -0.032484375 -0.00125 0.000590625 0.111743022096
76 1 -0.032484375 -0.00125 0.001771875 0.0971695291139
77 1 -0.032484375 -0.00125 0.002953125 0.0806850806714
78 1 -0.032484375 -0.00125 0.004134375 0.234108810806
79 1 -0.032484375 -0.00125 0.005315625 0.0385265097854
80 1 -0.032484375 -0.00125 0.006496875 0.037230384454
81 1 -0.032484375 -0.00125 0.007678125 0.0667440105686
82 1 -0.032484375 -0.00125 0.008859375 0.0367021560147
83 1 -0.032484375 -0.00125 0.010040625 0.0132724438041
84 1 -0.032484375 -0.00125 0.011221875 0.0181309862907
85 1 -0.032484375 -0.00125 0.012403125 0.00574031050467
86 1 -0.032484375 -0.00125 0.013584375 0.000226630323367
87 1 -0.032484375 -0.00125 0.014765625 0.000259489891793
88 1 -0.032484375 -0.00125 0.015946875 2.36655034743e-06
89 1 -0.032484375 -0.00125 0.017128125 1.73435926669e-06
90 1 -0.032484375 -0.00125 0.018309375 6.28409414654e-07
91 1 -0.031303125 -0.00125 -0.019490625 0.0520899977882
92 1 -0.031303125 -0.00125 -0.018309375 0.178544898268
93 1 -0.031303125 -0.00125 -0.017128125 0.241489524448
94 1 -0.031303125 -0.00125 -0.015946875 0.32441069114
95 1 -0.031303125 -0.00125 -0.014765625 0.312720717643
96 1 -0.031303125 -0.00125 -0.013584375 0.2309630219
97 1 -0.031303125 -0.00125 -0.012403125 0.27668629881
98 1 -0.031303125 -0.00125 -0.011221875 0.253329057757
99 1 -0.031303125 -0.00125 -0.010040625 0.243984319852
100 1 -0.031303125 -0.00125 -0.008859375 0.327566911509
101 1 -0.031303125 -0.00125 -0.007678125 0.304277137975
102 1 -0.031303125 -0.00125 -0.006496875 0.16618911956
103 1 -0.031303125 -0.00125 -0.005315625 0.198429263592
104 1 -0.031303125 -0.00125 -0.004134375 0.155695600727
105 1 -0.031303125 -0.00125 -0.002953125 0.260709947146
106 1 -0.031303125 -0.00125 -0.001771875 0.253001166349
107 1 -0.031303125 -0.00125 -0.000590625 0.304920391551
108 1 -0.031303125 -0.00125 0.000590625 0.245264390139
109 1 -0.031303125 -0.00125 0.001771875 0.168992209189
110 1 -0.031303125 -0.00125 0.002953125 0.314432264131
111 1 -0.031303125 -0.00125 0.004134375 0.300021020122
112 1 -0.031303125 -0.00125 0.005315625 0.227535748022
113 1 -0.031303125 -0.00125 0.006496875 0.144305164335
114 1 -0.031303125 -0.00125 0.007678125 0.0859623320415
115 1 -0.031303125 -0.00125 0.008859375 0.024435413122
116 1 -0.031303125 -0.00125 0.010040625 0.0195508144802
117 1 -0.031303125 -0.00125 0.011221875 0.0115222952403
118 1 -0.031303125 -0.00125 0.012403125 0.00634506511152
119 1 -0.031303125 -0.00125 0.013584375 0.00103759334376
120 1 -0.031303125 -0.00125 0.014765625 7.76527215055e-05
121 1 -0.031303125 -0.00125 0.015946875 6.10704430699e-06
122 1 -0.031303125 -0.00125 0.017128125 2.94123837265e-07
123 1 -0.031303125 -0.00125 0.018309375 4.78430450552e-07
124 1 -0.031303125 -0.00125 0.019490625 2.22315673766e-08
125 1 -0.030121875 -0.00125 -0.020671875 0.0317375998905
126 1 -0.030121875 -0.00125 -0.019490625 0.160193093323
127 1 -0.030121875 -0.00125 -0.018309375 0.351684860644
128 1 -0.030121875 -0.00125 -0.017128125 0.408812515223
129 1 -0.030121875 -0.00125 -0.015946875 0.505549819647
130 1 -0.030121875 -0.00125 -0.014765625 0.386582903285
131 1 -0.030121875 -0.00125 -0.013584375 0.329510989863
132 1 -0.030121875 -0.00125 -0.012403125 0.403281282259
133 1 -0.030121875 -0.00125 -0.011221875 0.325420763307
134 1 -0.030121875 -0.00125 -0.010040625 0.267210220753
135 1 -0.030121875 -0.00125 -0.008859375 0.263939725517
136 1 -0.030121875 -0.00125 -0.007678125 0.229619281107
137 1 -0.030121875 -0.00125 -0.006496875 0.185859835908
138 1 -0.030121875 -0.00125 -0.005315625 0.213288243816
139 1 -0.030121875 -0.00125 -0.004134375 0.249685477448
140 1 -0.030121875 -0.00125 -0.002953125 0.275909240087
141 1 -0.030121875 -0.00125 -0.001771875 0.276687359726
142 1 -0.030121875 -0.00125 -0.000590625 0.306744713117
143 1 -0.030121875 -0.00125 0.000590625 0.276866797466
144 1 -0.030121875 -0.00125 0.001771875 0.256612624597
145 1 -0.030121875 -0.00125 0.002953125 0.285005867378
146 1 -0.030121875 -0.00125 0.004134375 0.313369857196
147 1 -0.030121875 -0.00125 0.005315625 0.162861093974
148 1 -0.030121875 -0.00125 0.006496875 0.0803336823732
149 1 -0.030121875 -0.00125 0.007678125 0.0235847401328
150 1 -0.030121875 -0.00125 0.008859375 0.0256272151846
151 1 -0.030121875 -0.00125 0.010040625 0.0398416012341
152 1 -0.030121875 -0.00125 0.011221875 0.0421068742315
153 1 -0.030121875 -0.00125 0.012403125 0.0274964497045
154 1 -0.030121875 -0.00125 0.013584375 0.00572348963545
155 1 -0.030121875 -0.00125 0.014765625 0.00468717593306
156 1 -0.030121875 -0.00125 0.015946875 8.71041190768e-06
157 1 -0.030121875 -0.00125 0.017128125 1.51426901518e-05
158 1 -0.030121875 -0.00125 0.018309375 6.02398507112e-06
159 1 -0.030121875 -0.00125 0.019490625 6.52310640642e-08
160 1 -0.030121875 -0.00125 0.020671875 6.05101773875e-11
161 1 -0.028940625 -0.00125 -0.021853125 0.173310070629
162 1 -0.028940625 -0.00125 -0.020671875 0.165826795157
163 1 -0.028940625 -0.00125 -0.019490625 0.222756794429
164 1 -0.028940625 -0.00125 -0.018309375 0.410832911988
165 1 -0.028940625 -0.00125 -0.017128125 0.511242607171
166 1 -0.028940625 -0.00125 -0.015946875 0.510685996143
167 1 -0.028940625 -0.00125 -0.014765625 0.433845629265
168 1 -0.028940625 -0.00125 -0.013584375 0.374553614104
169 1 -0.028940625 -0.00125 -0.012403125 0.374080418992
170 1 -0.028940625 -0.00125 -0.011221875 0.365462537025
171 1 -0.028940625 -0.00125 -0.010040625 0.33972954295
172 1 -0.028940625 -0.00125 -0.008859375 0.357139052446
173 1 -0.028940625 -0.00125 -0.007678125 0.280232600747
174 1 -0.028940625 -0.00125 -0.006496875 0.306360401272
175 1 -0.028940625 -0.00125 -0.005315625 0.259220100313
176 1 -0.028940625 -0.00125 -0.004134375 0.390174138926
177 1 -0.028940625 -0.00125 -0.002953125 0.398851254202
178 1 -0.028940625 -0.00125 -0.001771875 0.435937423319
179 1 -0.028940625 -0.00125 -0.000590625 0.358428451128
180 1 -0.028940625 -0.00125 0.000590625 0.344009910332
181 1 -0.028940625 -0.00125 0.001771875 0.263996192365
182 1 -0.028940625 -0.00125 0.002953125 0.295991883579
183 1 -0.028940625 -0.00125 0.004134375 0.14696066045
184 1 -0.028940625 -0.00125 0.005315625 0.194631148797
185 1 -0.028940625 -0.00125 0.006496875 0.0957992398492
186 1 -0.028940625 -0.00125 0.007678125 0.039224386882
187 1 -0.028940625 -0.00125 0.008859375 0.0831763105911
188 1 -0.028940625 -0.00125 0.010040625 0.0987783787966
189 1 -0.028940625 -0.00125 0.011221875 0.0785952330326
190 1 -0.028940625 -0.00125 0.012403125 0.0490055657975
191 1 -0.028940625 -0.00125 0.013584375 0.0317959930071
192 1 -0.028940625 -0.00125 0.014765625 0.00394620210073
193 1 -0.028940625 -0.00125 0.015946875 0.00101037478551
194 1 -0.028940625 -0.00125 0.017128125 0.000377156062624
195 1 -0.028940625 -0.00125 0.018309375 0.00013823069562
196 1 -0.028940625 -0.00125 0.019490625 1.78347414287e-07
197 1 -0.028940625 -0.00125 0.020671875 3.07486114231e-08
198 1 -0.028940625 -0.00125 0.021853125 3.9369581319e-05
199 1 -0.027759375 -0.00125 -0.024215625 0.0102468174044
200 1 -0.027759375 -0.00125 -0.023034375 0.109599688332
201 1 -0.027759375 -0.00125 -0.021853125 0.278838249378
202 1 -0.027759375 -0.00125 -0.020671875 0.232470643725
203 1 -0.027759375 -0.00125 -0.019490625 0.292627285272
204 1 -0.027759375 -0.00125 -0.018309375 0.374202293131
205 1 -0.027759375 -0.00125 -0.017128125 0.494210214976
206 1 -0.027759375 -0.00125 -0.015946875 0.517960793322
207 1 -0.027759375 -0.00125 -0.014765625 0.461457887338
208 1 -0.027759375 -0.00125 -0.013584375 0.471958711143
209 1 -0.027759375 -0.00125 -0.012403125 0.377182450019
210 1 -0.027759375 -0.00125 -0.011221875 0.367046754413
211 1 -0.027759375 -0.00125 -0.010040625 0.314594957671
212 1 -0.027759375 -0.00125 -0.008859375 0.378778200305
213 1 -0.027759375 -0.00125 -0.007678125 0.36597015785
214 1 -0.027759375 -0.00125 -0.006496875 0.237223719037
215 1 -0.027759375 -0.00125 -0.005315625 0.282244367349
216 1 -0.027759375 -0.00125 -0.004134375 0.368867218797
217 1 -0.027759375 -0.00125 -0.002953125 0.43380701221
218 1 -0.027759375 -0.00125 -0.001771875 0.440478198493
219 1 -0.027759375 -0.00125 -0.000590625 0.402155827668
220 1 -0.027759375 -0.00125 0.000590625 0.391963842948
221 1 -0.027759375 -0.00125 0.001771875 0.321661316545
222 1 -0.027759375 -0.00125 0.002953125 0.229411560771
223 1 -0.027759375 -0.00125 0.004134375 0.157290762489
224 1 -0.027759375 -0.00125 0.005315625 0.119411887955
225 1 -0.027759375 -0.00125 0.006496875 0.132585162761
226 1 -0.027759375 -0.00125 0.007678125 0.106785926386
227 1 -0.027759375 -0.00125 0.008859375 0.0923105893215
228 1 -0.027759375 -0.00125 0.010040625 0.155595753582
229 1 -0.027759375 -0.00125 0.011221875 0.124822535296
230 1 -0.027759375 -0.00125 0.012403125 0.116712551346
231 1 -0.027759375 -0.00125 0.013584375 0.0823507312752
232 1 -0.027759375 -0.00125 0.014765625 0.0160928678429
233 1 -0.027759375 -0.00125 0.015946875 0.00797644034431
234 1 -0.027759375 -0.00125 0.017128125 0.00889535607352
235 1 -0.027759375 -0.00125 0.018309375 0.00413697533779
236 1 -0.027759375 -0.00125 0.019490625 0.000207110274769
237 1 -0.027759375 -0.00125 0.020671875 1.42467098302e-08
238 1 -0.027759375 -0.00125 0.021853125 1.56835330347e-05
239 1 -0.027759375 -0.00125 0.023034375 1.33052821951e-09
240 1 -0.027759375 -0.00125 0.024215625 2.85392681936e-75
241 1 -0.026578125 -0.00125 -0.026578125 0.0746856976955
242 1 -0.026578125 -0.00125 -0.025396875 0.0574256228715
243 1 -0.026578125 -0.00125 -0.024215625 0.0417891758489
244 1 -0.026578125 -0.00125 -0.023034375 0.155850084956
245 1 -0.026578125 -0.00125 -0.021853125 0.265516423341
246 1 -0.026578125 -0.00125 -0.020671875 0.267425944151
247 1 -0.026578125 -0.00125 -0.019490625 0.316934853892
248 1 -0.026578125 -0.00125 -0.018309375 0.4576602534
249 1 -0.026578125 -0.00125 -0.017128125 0.522243183746
250 1 -0.026578125 -0.00125 -0.015946875 0.59614599095
251 1 -0.026578125 -0.00125 -0.014765625 0.58094061857
252 1 -0.026578125 -0.00125 -0.013584375 0.525241856394
253 1 -0.026578125 -0.00125 -0.012403125 0.440847110175
254 1 -0.026578125 -0.00125 -0.011221875 0.486946042986
255 1 -0.026578125 -0.00125 -0.010040625 0.450627460769
256 1 -0.026578125 -0.00125 -0.008859375 0.428434472257
257 1 -0.026578125 -0.00125 -0.007678125 0.373144343147
258 1 -0.026578125 -0.00125 -0.006496875 0.273512232806
259 1 -0.026578125 -0.00125 -0.005315625 0.257359618408
260 1 -0.026578125 -0.00125 -0.004134375 0.384392554134
261 1 -0.026578125 -0.00125 -0.002953125 0.496628500478
262 1 -0.026578125 -0.00125 -0.001771875 0.525050202831
263 1 -0.026578125 -0.00125 -0.000590625 0.474137305994
264 1 -0.026578125 -0.00125 0.000590625 0.42902157088
265 1 -0.026578125 -0.00125 0.001771875 0.245843997802
266 1 -0.026578125 -0.00125 0.002953125 0.245315338183
267 1 -0.026578125 -0.00125 0.004134375 0.219886377311
268 1 -0.026578125 -0.00125 0.005315625 0.248344572388
269 1 -0.026578125 -0.00125 0.006496875 0.265931692507
270 1 -0.026578125 -0.00125 0.007678125 0.183087827313
271 1 -0.026578125 -0.00125 0.008859375 0.151722557909
272 1 -0.026578125 -0.00125 0.010040625 0.207124919306
273 1 -0.026578125 -0.00125 0.011221875 0.196931372244
274 1 -0.026578125 -0.00125 0.012403125 0.20340813836
275 1 -0.026578125 -0.00125 0.013584375 0.158210030432
276 1 -0.026578125 -0.00125 0.014765625 0.0725746453369
277 1 -0.026578125 -0.00125 0.015946875 0.0579408171845
278 1 -0.026578125 -0.00125 0.017128125 0.0386051320214
279 1 -0.026578125 -0.00125 0.018309375 0.00858701477477
280 1 -0.026578125 -0.00125 0.019490625 0.000145602874072
281 1 -0.026578125 -0.00125 0.020671875 2.22308781219e-10
282 1 -0.026578125 -0.00125 0.021853125 1.76211690765e-16
283 1 -0.026578125 -0.00125 0.023034375 5.39283986843e-16
284 1 -0.026578125 -0.00125 0.024215625 5.84065387992e-26
285 1 -0.026578125 -0.00125 0.025396875 9.55536968731e-43
286 1 -0.026578125 -0.00125 0.026578125 8.58523049236e-32
287 1 -0.025396875 -0.00125 -0.026578125 0.0374032829335
288 1 -0.025396875 -0.00125 -0.025396875 0.0979090665468
289 1 -0.025396875 -0.00125 -0.024215625 0.194433319517
290 1 -0.025396875 -0.00125 -0.023034375 0.260358243373
291 1 -0.025396875 -0.00125 -0.021853125 0.301108492823
292 1 -0.025396875 -0.00125 -0.020671875 0.352319263004
293 1 -0.025396875 -0.00125 -0.019490625 0.443043179022
294 1 -0.025396875 -0.00125 -0.018309375 0.612489285747
295 1 -0.025396875 -0.00125 -0.017128125 0.596480082362
296 1 -0.025396875 -0.00125 -0.015946875 0.663670387654
297 1 -0.025396875 -0.00125 -0.014765625 0.640268029375
298 1 -0.025396875 -0.00125 -0.013584375 0.570688834004
299 1 -0.025396875 -0.00125 -0.012403125 0.620808923773
300 1 -0.025396875 -0.00125 -0.011221875 0.54430624589
301 1 -0.025396875 -0.00125 -0.010040625 0.536493300076
302 1 -0.025396875 -0.00125 -0.008859375 0.53456563522
303 1 -0.025396875 -0.00125 -0.007678125 0.472550477187
304 1 -0.025396875 -0.00125 -0.006496875 0.464131980492
305 1 -0.025396875 -0.00125 -0.005315625 0.45354314958
306 1 -0.025396875 -0.00125 -0.004134375 0.452739993184
307 1 -0.025396875 -0.00125 -0.002953125 0.547217875899
308 1 -0.025396875 -0.00125 -0.001771875 0.596521913822
309 1 -0.025396875 -0.00125 -0.000590625 0.565155566671
310 1 -0.025396875 -0.00125 0.000590625 0.457340898107
311 1 -0.025396875 -0.00125 0.001771875 0.29745809128
312 1 -0.025396875 -0.00125 0.002953125 0.289428613793
313 1 -0.025396875 -0.00125 0.004134375 0.302492512155
314 1 -0.025396875 -0.00125 0.005315625 0.328972517846
315 1 -0.025396875 -0.00125 0.006496875 0.324719258904
316 1 -0.025396875 -0.00125 0.007678125 0.238896959369
317 1 -0.025396875 -0.00125 0.008859375 0.173497406943
318 1 -0.025396875 -0.00125 0.010040625 0.241640651755
319 1 -0.025396875 -0.00125 0.011221875 0.258020212256
320 1 -0.025396875 -0.00125 0.012403125 0.277548281632
321 1 -0.025396875 -0.00125 0.013584375 0.199049231861
322 1 -0.025396875 -0.00125 0.014765625 0.120481139468
323 1 -0.025396875 -0.00125 0.015946875 0.0731694444327
324 1 -0.025396875 -0.00125 0.017128125 0.0427325167093
325 1 -0.025396875 -0.00125 0.018309375 0.0235924435939
326 1 -0.025396875 -0.00125 0.019490625 0.000194397864348
327 1 -0.025396875 -0.00125 0.020671875 3.94265131788e-08
328 1 -0.025396875 -0.00125 0.021853125 7.29628513225e-27
329 1 -0.025396875 -0.00125 0.023034375 2.78968256058e-29
330 1 -0.025396875 -0.00125 0.024215625 2.31798674542e-45
331 1 -0.025396875 -0.00125 0.025396875 8.27833884586e-44
332 1 -0.025396875 -0.00125 0.026578125 2.9886143941e-94
333 1 -0.024215625 -0.00125 -0.027759375 0.0193406181304
334 1 -0.024215625 -0.00125 -0.026578125 0.100093124306
335 1 -0.024215625 -0.00125 -0.025396875 0.20161618465
336 1 -0.024215625 -0.00125 -0.024215625 0.335203225882
337 1 -0.024215625 -0.00125 -0.023034375 0.322319858406
338 1 -0.024215625 -0.00125 -0.021853125 0.310100200747
339 1 -0.024215625 -0.00125 -0.020671875 0.468931864115
340 1 -0.024215625 -0.00125 -0.019490625 0.52152422476
341 1 -0.024215625 -0.00125 -0.018309375 0.61655512963
342 1 -0.024215625 -0.00125 -0.017128125 0.656500754683
343 1 -0.024215625 -0.00125 -0.015946875 0.669981069531
344 1 -0.024215625 -0.00125 -0.014765625 0.582767208012
345 1 -0.024215625 -0.00125 -0.013584375 0.605284817637
346 1 -0.024215625 -0.00125 -0.012403125 0.581440000112
347 1 -0.024215625 -0.00125 -0.011221875 0.643360031228
348 1 -0.024215625 -0.00125 -0.010040625 0.618957774301
349 1 -0.024215625 -0.00125 -0.008859375 0.550521113974
350 1 -0.024215625 -0.00125 -0.007678125 0.642579219068
351 1 -0.024215625 -0.00125 -0.006496875 0.62403375461
352 1 -0.024215625 -0.00125 -0.005315625 0.588296978955
353 1 -0.024215625 -0.00125 -0.004134375 0.56521304792
354 1 -0.024215625 -0.00125 -0.002953125 0.581165551234
355 1 -0.024215625 -0.00125 -0.001771875 0.576085289913
356 1 -0.024215625 -0.00125 -0.000590625 0.538045522054
357 1 -0.024215625 -0.00125 0.000590625 0.493895956768
358 1 -0.024215625 -0.00125 0.001771875 0.4273784693
359 1 -0.024215625 -0.00125 0.002953125 0.377972854619
360 1 -0.024215625 -0.00125 0.004134375 0.379594793994
361 1 -0.024215625 -0.00125 0.005315625 0.318615371965
362 1 -0.024215625 -0.00125 0.006496875 0.266931688512
363 1 -0.024215625 -0.00125 0.007678125 0.218164080853
364 1 -0.024215625 -0.00125 0.008859375 0.143960262594
365 1 -0.024215625 -0.00125 0.010040625 0.157403171194
366 1 -0.024215625 -0.00125 0.011221875 0.145415335664
367 1 -0.024215625 -0.00125 0.012403125 0.153038613398
368 1 -0.024215625 -0.00125 0.013584375 0.152412687948
369 1 -0.024215625 -0.00125 0.014765625 0.101345501581
370 1 -0.024215625 -0.00125 0.015946875 0.0671039813825
371 1 -0.024215625 -0.00125 0.017128125 0.0455399994323
372 1 -0.024215625 -0.00125 0.018309375 0.0230808318746
373 1 -0.024215625 -0.00125 0.019490625 0.000625532646547
374 1 -0.024215625 -0.00125 0.020671875 3.96365855608e-12
375 1 -0.024215625 -0.00125 0.021853125 4.00980760939e-43
376 1 -0.024215625 -0.00125 0.023034375 4.35076925524e-56
377 1 -0.024215625 -0.00125 0.024215625 1.43192325987e-67
378 1 -0.024215625 -0.00125 0.025396875 3.97573311472e-41
379 1 -0.024215625 -0.00125 0.026578125 1.63720928236e-34
380 1 -0.024215625 -0.00125 0.027759375 1.81794802286e-50
381 1 -0.023034375 -0.00125 -0.027759375 0.229972505661
382 1 -0.023034375 -0.00125 -0.026578125 0.221642666263
383 1 -0.023034375 -0.00125 -0.025396875 0.279271570865
384 1 -0.023034375 -0.00125 -0.024215625 0.377148505978
385 1 -0.023034375 -0.00125 -0.023034375 0.306165794027
386 1 -0.023034375 -0.00125 -0.021853125 0.43832901157
387 1 -0.023034375 -0.00125 -0.020671875 0.431851831587
388 1 -0.023034375 -0.00125 -0.019490625 0.568212154861
389 1 -0.023034375 -0.00125 -0.018309375 0.61653904209
390 1 -0.023034375 -0.00125 -0.017128125 0.678354880958
391 1 -0.023034375 -0.00125 -0.015946875 0.75440011609
392 1 -0.023034375 -0.00125 -0.014765625 0.758742222729
393 1 -0.023034375 -0.00125 -0.013584375 0.795210412255
394 1 -0.023034375 -0.00125 -0.012403125 0.733466151154
395 1 -0.023034375 -0.00125 -0.011221875 0.853040255309
396 1 -0.023034375 -0.00125 -0.010040625 0.849207217171
397 1 -0.023034375 -0.00125 -0.008859375 0.82238392034
398 1 -0.023034375 -0.00125 -0.007678125 0.820904765545
399 1 -0.023034375 -0.00125 -0.006496875 0.801133530942
400 1 -0.023034375 -0.00125 -0.005315625 0.762197628305
401 1 -0.023034375 -0.00125 -0.004134375 0.781490047138
402 1 -0.023034375 -0.00125 -0.002953125 0.7163325387
403 1 -0.023034375 -0.00125 -0.001771875 0.738790644028
404 1 -0.023034375 -0.00125 -0.000590625 0.684475859614
405 1 -0.023034375 -0.00125 0.000590625 0.632363376562
406 1 -0.023034375 -0.00125 0.001771875 0.530094609416
407 1 -0.023034375 -0.00125 0.002953125 0.372775140809
408 1 -0.023034375 -0.00125 0.004134375 0.317599429975
409 1 -0.023034375 -0.00125 0.005315625 0.270558501051
410 1 -0.023034375 -0.00125 0.006496875 0.131374400404
411 1 -0.023034375 -0.00125 0.007678125 0.0932799645877
412 1 -0.023034375 -0.00125 0.008859375 0.101438336379
413 1 -0.023034375 -0.00125 0.010040625 0.131199621428
414 1 -0.023034375 -0.00125 0.011221875 0.112505076548
415 1 -0.023034375 -0.00125 0.012403125 0.176868385699
416 1 -0.023034375 -0.00125 0.013584375 0.10939381064
417 1 -0.023034375 -0.00125 0.014765625 0.123492026536
418 1 -0.023034375 -0.00125 0.015946875 0.0861721840916
419 1 -0.023034375 -0.00125 0.017128125 0.0630307608613
420 1 -0.023034375 -0.00125 0.018309375 0.0219554917285
421 1 -0.023034375 -0.00125 0.019490625 0.000213877468475
422 1 -0.023034375 -0.00125 0.020671875 5.59735266121e-12
423 1 -0.023034375 -0.00125 0.021853125 1.45218168144e-69
424 1 -0.023034375 -0.00125 0.023034375 1.70947127932e-144
425 1 -0.023034375 -0.00125 0.024215625 1.20004040293e-82
426 1 -0.023034375 -0.00125 0.025396875 2.1407769561e-35
427 1 -0.023034375 -0.00125 0.026578125 7.84875830439e-32
428 1 -0.023034375 -0.00125 0.027759375 1.05652722305e-08
429 1 -0.021853125 -0.00125 -0.028940625 0.338386530735
430 1 -0.021853125 -0.00125 -0.027759375 0.608851031009
431 1 -0.021853125 -0.00125 -0.026578125 0.701801941157
432 1 -0.021853125 -0.00125 -0.025396875 0.506228800885
433 1 -0.021853125 -0.00125 -0.024215625 0.436874170298
434 1 -0.021853125 -0.00125 -0.023034375 0.413451743585
435 1 -0.021853125 -0.00125 -0.021853125 0.457989954443
436 1 -0.021853125 -0.00125 -0.020671875 0.525996018187
437 1 -0.021853125 -0.00125 -0.019490625 0.516818079311
438 1 -0.021853125 -0.00125 -0.018309375 0.686214703805
439 1 -0.021853125 -0.00125 -0.017128125 0.795484034347
440 1 -0.021853125 -0.00125 -0.015946875 0.840934970867
441 1 -0.021853125 -0.00125 -0.014765625 0.884737053096
442 1 -0.021853125 -0.00125 -0.013584375 0.918763113957
443 1 -0.021853125 -0.00125 -0.012403125 0.924804591291
444 1 -0.021853125 -0.00125 -0.011221875 0.970025928367
445 1 -0.021853125 -0.00125 -0.010040625 0.985631021141
446 1 -0.021853125 -0.00125 -0.008859375 0.973955389856
447 1 -0.021853125 -0.00125 -0.007678125 0.929436784457
448 1 -0.021853125 -0.00125 -0.006496875 0.900514090656
449 1 -0.021853125 -0.00125 -0.005315625 0.932590621641
450 1 -0.021853125 -0.00125 -0.004134375 0.925836987643
451 1 -0.021853125 -0.00125 -0.002953125 0.786398777864
452 1 -0.021853125 -0.00125 -0.001771875 0.798674735102
453 1 -0.021853125 -0.00125 -0.000590625 0.829410201546
454 1 -0.021853125 -0.00125 0.000590625 0.765204442902
455 1 -0.021853125 -0.00125 0.001771875 0.652109755464
456 1 -0.021853125 -0.00125 0.002953125 0.411851417597
457 1 -0.021853125 -0.00125 0.004134375 0.286396463155
458 1 -0.021853125 -0.00125 0.005315625 0.175976052501
459 1 -0.021853125 -0.00125 0.006496875 0.0826373586619
460 1 -0.021853125 -0.00125 0.007678125 0.0713237301029
461 1 -0.021853125 -0.00125 0.008859375 0.080020857563
462 1 -0.021853125 -0.00125 0.010040625 0.065967932137
463 1 -0.021853125 -0.00125 0.011221875 0.0709324417687
464 1 -0.021853125 -0.00125 0.012403125 0.0739021456703
465 1 -0.021853125 -0.00125 0.013584375 0.120246153858
466 1 -0.021853125 -0.00125 0.014765625 0.127990532574
467 1 -0.021853125 -0.00125 0.015946875 0.117798166785
468 1 -0.021853125 -0.00125 0.017128125 0.0401620022961
469 1 -0.021853125 -0.00125 0.018309375 0.00672000943476
470 1 -0.021853125 -0.00125 0.019490625 5.31198725907e-05
471 1 -0.021853125 -0.00125 0.020671875 3.07292478093e-17
472 1 -0.021853125 -0.00125 0.021853125 8.07984075568e-46
473 1 -0.021853125 -0.00125 0.023034375 2.71543100393e-52
474 1 -0.021853125 -0.00125 0.024215625 1.874647072e-46
475 1 -0.021853125 -0.00125 0.025396875 2.07186527126e-35
476 1 -0.021853125 -0.00125 0.026578125 3.67584165619e-10
477 1 -0.021853125 -0.00125 0.027759375 0.00101863774149
478 1 -0.021853125 -0.00125 0.028940625 8.34136684483e-09
479 1 -0.020671875 -0.00125 -0.030121875 0.0157617430583
480 1 -0.020671875 -0.00125 -0.028940625 0.0662765237657
481 1 -0.020671875 -0.00125 -0.027759375 0.4603798355
482 1 -0.020671875 -0.00125 -0.026578125 0.537940848506
483 1 -0.020671875 -0.00125 -0.025396875 0.579335932502
484 1 -0.020671875 -0.00125 -0.024215625 0.397802027586
485 1 -0.020671875 -0.00125 -0.023034375 0.389445841105
486 1 -0.020671875 -0.00125 -0.021853125 0.476070647736
487 1 -0.020671875 -0.00125 -0.020671875 0.508768239371
488 1 -0.020671875 -0.00125 -0.019490625 0.548086614581
489 1 -0.020671875 -0.00125 -0.018309375 0.683740401566
490 1 -0.020671875 -0.00125 -0.017128125 0.857295500595
491 1 -0.020671875 -0.00125 -0.015946875 0.837408182102
492 1 -0.020671875 -0.00125 -0.014765625 0.928869997217
493 1 -0.020671875 -0.00125 -0.013584375 0.966631343158
494 1 -0.020671875 -0.00125 -0.012403125 0.995329003993
495 1 -0.020671875 -0.00125 -0.011221875 0.996613215756
496 1 -0.020671875 -0.00125 -0.010040625 0.999317688483
497 1 -0.020671875 -0.00125 -0.008859375 0.999155960147
498 1 -0.020671875 -0.00125 -0.007678125 0.99786773247
499 1 -0.020671875 -0.00125 -0.006496875 0.99858630717
500 1 -0.020671875 -0.00125 -0.005315625 0.994778498817
501 1 -0.020671875 -0.00125 -0.004134375 0.995243429248
502 1 -0.020671875 -0.00125 -0.002953125 0.992898917966
503 1 -0.020671875 -0.00125 -0.001771875 0.976305731669
504 1 -0.020671875 -0.00125 -0.000590625 0.929758779676
505 1 -0.020671875 -0.00125 0.000590625 0.785179024173
506 1 -0.020671875 -0.00125 0.001771875 0.622867437419
507 1 -0.020671875 -0.00125 0.002953125 0.40308218635
508 1 -0.020671875 -0.00125 0.004134375 0.232446756235
509 1 -0.020671875 -0.00125 0.005315625 0.111014190732
510 1 -0.020671875 -0.00125 0.006496875 0.0635961834105
511 1 -0.020671875 -0.00125 0.007678125 0.0395253285553
512 1 -0.020671875 -0.00125 0.008859375 0.0486023080768
513 1 -0.020671875 -0.00125 0.010040625 0.0255471638934
514 1 -0.020671875 -0.00125 0.011221875 0.0470062788989
515 1 -0.020671875 -0.00125 0.012403125 0.0384724686962
516 1 -0.020671875 -0.00125 0.013584375 0.0694150687018
517 1 -0.020671875 -0.00125 0.014765625 0.0702705377715
518 1 -0.020671875 -0.00125 0.015946875 0.123051409222
519 1 -0.020671875 -0.00125 0.017128125 0.0278373113926
520 1 -0.020671875 -0.00125 0.018309375 0.0143396967877
521 1 -0.020671875 -0.00125 0.019490625 1.71802995146e-06
522 1 -0.020671875 -0.00125 0.020671875 3.07149704656e-23
523 1 -0.020671875 -0.00125 0.021853125 4.27861494272e-68
524 1 -0.020671875 -0.00125 0.023034375 1.752684762e-35
525 1 -0.020671875 -0.00125 0.024215625 2.25615967441e-57
526 1 -0.020671875 -0.00125 0.025396875 1.93639609973e-51
527 1 -0.020671875 -0.00125 0.026578125 2.07110540934e-18
528 1 -0.020671875 -0.00125 0.027759375 2.13117238034e-09
529 1 -0.020671875 -0.00125 0.028940625 9.84570607884e-46
530 1 -0.020671875 -0.00125 0.030121875 5.6511973683e-81