ITEM: TIMESTEP
0
ITEM: NUMBER OF ATOMS
3080
ITEM: BOX BOUNDS ss ss ss
-3.7007399999999996e-02 3.7007399999999996e-02
-2.0002499999999999e-03 2.5000000000000004e-07
-3.7007399999999996e-02 3.7007399999999996e-02
ITEM: ATOMS id type x y z c_1
0 1 -0.037209375 -0.00125 -0.000590625 0.999999994573
1 1 -0.036028125 -0.00125 -0.007678125 3.52649998918e-10
2 1 -0.036028125 -0.00125 -0.006496875 3.44007689906e-25
3 1 -0.036028125 -0.00125 -0.005315625 2.62179407241e-44
4 1 -0.036028125 -0.00125 -0.004134375 1.05942935976e-25
5 1 -0.036028125 -0.00125 -0.002953125 3.18850431199e-06
6 1 -0.036028125 -0.00125 -0.001771875 0.000117582738996
7 1 -0.036028125 -0.00125 -0.000590625 4.90138729721e-07
8 1 -0.036028125 -0.00125 0.000590625 8.3752792221e-39
9 1 -0.036028125 -0.00125 0.001771875 6.5268395469e-25
10 1 -0.036028125 -0.00125 0.002953125 1.28638899935e-67
11 1 -0.036028125 -0.00125 0.004134375 2.24665835519e-86
12 1 -0.036028125 -0.00125 0.005315625 8.88317945871e-76
13 1 -0.036028125 -0.00125 0.006496875 2.7244550097e-36
14 1 -0.036028125 -0.00125 0.007678125 4.10355849124e-24
15 1 -0.034846875 -0.00125 -0.011221875 0.000989380602241
16 1 -0.034846875 -0.00125 -0.010040625 1.67304818691e-05
17 1 -0.034846875 -0.00125 -0.008859375 0.000365859642335
18 1 -0.034846875 -0.00125 -0.007678125 1.32892390129e-21
19 1 -0.034846875 -0.00125 -0.006496875 1.84804467241e-19
20 1 -0.034846875 -0.00125 -0.005315625 1.66386001511e-54
21 1 -0.034846875 -0.00125 -0.004134375 1.80298631904e-48
22 1 -0.034846875 -0.00125 -0.002953125 1.36845382443e-08
23 1 -0.034846875 -0.00125 -0.001771875 8.5207925662e-09
24 1 -0.034846875 -0.00125 -0.000590625 6.6742530813e-12
25 1 -0.034846875 -0.00125 0.000590625 9.22107992541e-48
26 1 -0.034846875 -0.00125 0.001771875 3.15325703526e-82
27 1 -0.034846875 -0.00125 0.002953125 5.3126290754e-142
28 1 -0.034846875 -0.00125 0.004134375 3.78049942587e-130
29 1 -0.034846875 -0.00125 0.005315625 7.97808873947e-115
30 1 -0.034846875 -0.00125 0.006496875 8.55649269813e-69
31 1 -0.034846875 -0.00125 0.007678125 1.01349578845e-37
32 1 -0.034846875 -0.00125 0.008859375 1.34097713018e-10
33 1 -0.034846875 -0.00125 0.010040625 6.54878955863e-19
34 1 -0.034846875 -0.00125 0.011221875 1.24419675385e-24
35 1 -0.033665625 -0.00125 -0.013584375 8.08567839395e-05
36 1 -0.033665625 -0.00125 -0.012403125 0.0143729462596
37 1 -0.033665625 -0.00125 -0.011221875 0.000519583537983
38 1 -0.033665625 -0.00125 -0.010040625 3.13036350365e-05
39 1 -0.033665625 -0.00125 -0.008859375 9.8163318538e-06
40 1 -0.033665625 -0.00125 -0.007678125 1.90102355431e-08
41 1 -0.033665625 -0.00125 -0.006496875 3.24651473662e-17
42 1 -0.033665625 -0.00125 -0.005315625 3.65480614743e-48
43 1 -0.033665625 -0.00125 -0.004134375 4.22268635133e-21
44 1 -0.033665625 -0.00125 -0.002953125 1.53436695128e-15
45 1 -0.033665625 -0.00125 -0.001771875 5.51314202743e-11
46 1 -0.033665625 -0.00125 -0.000590625 4.08483168929e-10
47 1 -0.033665625 -0.00125 0.000590625 2.6604073416e-33
48 1 -0.033665625 -0.00125 0.001771875 1.2723385414e-71
49 1 -0.033665625 -0.00125 0.002953125 1.61858153315e-87
50 1 -0.033665625 -0.00125 0.004134375 1.42760013677e-122
51 1 -0.033665625 -0.00125 0.005315625 9.88148105173e-119
52 1 -0.033665625 -0.00125 0.006496875 1.69891060552e-51
53 1 -0.033665625 -0.00125 0.007678125 8.91687422735e-27
54 1 -0.033665625 -0.00125 0.008859375 8.85511394529e-12
55 1 -0.033665625 -0.00125 0.010040625 9.12434757186e-18
56 1 -0.033665625 -0.00125 0.011221875 1.29866322938e-21
57 1 -0.033665625 -0.00125 0.012403125 2.44567279847e-17
58 1 -0.033665625 -0.00125 0.013584375 5.58855163612e-61
59 1 -0.032484375 -0.00125 -0.018309375 0.00198625218821
60 1 -0.032484375 -0.00125 -0.017128125 0.000731596556757
61 1 -0.032484375 -0.00125 -0.015946875 0.018136585467
62 1 -0.032484375 -0.00125 -0.014765625 0.00189463228189
63 1 -0.032484375 -0.00125 -0.013584375 2.90091708107e-05
64 1 -0.032484375 -0.00125 -0.012403125 0.00570409796027
65 1 -0.032484375 -0.00125 -0.011221875 0.00309945498502
66 1 -0.032484375 -0.00125 -0.010040625 4.5945096591e-05
67 1 -0.032484375 -0.00125 -0.008859375 0.000367946692629
68 1 -0.032484375 -0.00125 -0.007678125 0.00017793927647
69 1 -0.032484375 -0.00125 -0.006496875 7.01755461329e-10
70 1 -0.032484375 -0.00125 -0.005315625 1.28096519006e-10
71 1 -0.032484375 -0.00125 -0.004134375 2.15611941657e-13
72 1 -0.032484375 -0.00125 -0.002953125 1.01441602503e-12
73 1 -0.032484375 -0.00125 -0.001771875 3.89858294081e-09
74 1 -0.032484375 -0.00125 -0.000590625 1.68599851875e-09
75 1 -0.032484375 -0.00125 0.000590625 7.29267803742e-19
76 1 -0.032484375 -0.00125 0.001771875 1.96189545189e-10
77 1 -0.032484375 -0.00125 0.002953125 4.2613790393e-22
78 1 -0.032484375 -0.00125 0.004134375 1.20163008207e-17
79 1 -0.032484375 -0.00125 0.005315625 8.82331698187e-36
80 1 -0.032484375 -0.00125 0.006496875 2.99641292015e-20
81 1 -0.032484375 -0.00125 0.007678125 1.12040344762e-17
82 1 -0.032484375 -0.00125 0.008859375 1.721480352e-11
83 1 -0.032484375 -0.00125 0.010040625 1.68905438164e-12
84 1 -0.032484375 -0.00125 0.011221875 1.91085044207e-14
85 1 -0.032484375 -0.00125 0.012403125 1.13910850733e-30
86 1 -0.032484375 -0.00125 0.013584375 3.91984350449e-126
87 1 -0.032484375 -0.00125 0.014765625 7.72802411597e-56
88 1 -0.032484375 -0.00125 0.015946875 6.86577202559e-42
89 1 -0.032484375 -0.00125 0.017128125 7.3898114755e-51
90 1 -0.032484375 -0.00125 0.018309375 3.93865052705e-43
91 1 -0.031303125 -0.00125 -0.019490625 0.000208510461607
92 1 -0.031303125 -0.00125 -0.018309375 0.00544990392983
93 1 -0.031303125 -0.00125 -0.017128125 0.01462068541
94 1 -0.031303125 -0.00125 -0.015946875 0.00771712562212
95 1 -0.031303125 -0.00125 -0.014765625 0.00405163782411
96 1 -0.031303125 -0.00125 -0.013584375 9.40616704605e-05
97 1 -0.031303125 -0.00125 -0.012403125 0.00145996082773
98 1 -0.031303125 -0.00125 -0.011221875 0.00132336935323
99 1 -0.031303125 -0.00125 -0.010040625 0.00022474516852
100 1 -0.031303125 -0.00125 -0.008859375 6.3981423761e-06
101 1 -0.031303125 -0.00125 -0.007678125 1.93768513742e-05
102 1 -0.031303125 -0.00125 -0.006496875 2.24950134348e-06
103 1 -0.031303125 -0.00125 -0.005315625 1.91098994851e-06
104 1 -0.031303125 -0.00125 -0.004134375 1.40622980158e-09
105 1 -0.031303125 -0.00125 -0.002953125 2.56009765144e-06
106 1 -0.031303125 -0.00125 -0.001771875 2.8417203447e-05
107 1 -0.031303125 -0.00125 -0.000590625 1.25168799638e-05
108 1 -0.031303125 -0.00125 0.000590625 5.80959831799e-06
109 1 -0.031303125 -0.00125 0.001771875 1.01379351732e-05
110 1 -0.031303125 -0.00125 0.002953125 2.25848671032e-05
111 1 -0.031303125 -0.00125 0.004134375 1.08724804097e-05
112 1 -0.031303125 -0.00125 0.005315625 7.49775810161e-07
113 1 -0.031303125 -0.00125 0.006496875 3.34890770175e-09
114 1 -0.031303125 -0.00125 0.007678125 1.23475532125e-10
115 1 -0.031303125 -0.00125 0.008859375 8.09517652871e-16
116 1 -0.031303125 -0.00125 0.010040625 1.71592782065e-15
117 1 -0.031303125 -0.00125 0.011221875 5.8463728736e-13
118 1 -0.031303125 -0.00125 0.012403125 1.01880773749e-14
119 1 -0.031303125 -0.00125 0.013584375 1.19287340759e-44
120 1 -0.031303125 -0.00125 0.014765625 9.65020772173e-56
121 1 -0.031303125 -0.00125 0.015946875 9.75465047415e-60
122 1 -0.031303125 -0.00125 0.017128125 1.20323348851e-89
123 1 -0.031303125 -0.00125 0.018309375 6.05084282569e-59
124 1 -0.031303125 -0.00125 0.019490625 1.43046948515e-70
125 1 -0.030121875 -0.00125 -0.020671875 4.88753308354e-05
126 1 -0.030121875 -0.00125 -0.019490625 0.00354322573376
127 1 -0.030121875 -0.00125 -0.018309375 0.0039247715927
128 1 -0.030121875 -0.00125 -0.017128125 0.00474790653579
129 1 -0.030121875 -0.00125 -0.015946875 0.00397769254841
130 1 -0.030121875 -0.00125 -0.014765625 0.000605493370697
131 1 -0.030121875 -0.00125 -0.013584375 5.70156712507e-07
132 1 -0.030121875 -0.00125 -0.012403125 0.000483933629706
133 1 -0.030121875 -0.00125 -0.011221875 0.00077123037994
134 1 -0.030121875 -0.00125 -0.010040625 4.81985732973e-05
135 1 -0.030121875 -0.00125 -0.008859375 3.37371532312e-08
136 1 -0.030121875 -0.00125 -0.007678125 7.15925472005e-07
137 1 -0.030121875 -0.00125 -0.006496875 7.02249685999e-08
138 1 -0.030121875 -0.00125 -0.005315625 0.000298932718577
139 1 -0.030121875 -0.00125 -0.004134375 2.086173406e-05
140 1 -0.030121875 -0.00125 -0.002953125 0.000923694206676
141 1 -0.030121875 -0.00125 -0.001771875 0.00170250655327
142 1 -0.030121875 -0.00125 -0.000590625 7.54449869024e-05
143 1 -0.030121875 -0.00125 0.000590625 0.000469810804741
144 1 -0.030121875 -0.00125 0.001771875 0.00375864091419
145 1 -0.030121875 -0.00125 0.002953125 0.000899462821378
146 1 -0.030121875 -0.00125 0.004134375 0.00184771142097
147 1 -0.030121875 -0.00125 0.005315625 0.000312250877104
148 1 -0.030121875 -0.00125 0.006496875 3.13918180911e-07
149 1 -0.030121875 -0.00125 0.007678125 5.61598475392e-10
150 1 -0.030121875 -0.00125 0.008859375 5.14650048611e-15
151 1 -0.030121875 -0.00125 0.010040625 2.75576350713e-08
152 1 -0.030121875 -0.00125 0.011221875 1.19265142651e-13
153 1 -0.030121875 -0.00125 0.012403125 1.64873295691e-11
154 1 -0.030121875 -0.00125 0.013584375 2.55243057576e-16
155 1 -0.030121875 -0.00125 0.014765625 1.43630759388e-25
156 1 -0.030121875 -0.00125 0.015946875 4.02986536341e-62
157 1 -0.030121875 -0.00125 0.017128125 1.39702040635e-48
158 1 -0.030121875 -0.00125 0.018309375 4.69458349761e-65
159 1 -0.030121875 -0.00125 0.019490625 8.91073312785e-123
160 1 -0.030121875 -0.00125 0.020671875 1.30243229302e-172
161 1 -0.028940625 -0.00125 -0.021853125 0.193861836366
162 1 -0.028940625 -0.00125 -0.020671875 0.0383919057963
163 1 -0.028940625 -0.00125 -0.019490625 0.0213735880619
164 1 -0.028940625 -0.00125 -0.018309375 0.000914461509113
165 1 -0.028940625 -0.00125 -0.017128125 8.02983518679e-05
166 1 -0.028940625 -0.00125 -0.015946875 0.000715375664463
167 1 -0.028940625 -0.00125 -0.014765625 0.000204482832051
168 1 -0.028940625 -0.00125 -0.013584375 3.84641327088e-06
169 1 -0.028940625 -0.00125 -0.012403125 4.7968660647e-06
170 1 -0.028940625 -0.00125 -0.011221875 7.7011823383e-06
171 1 -0.028940625 -0.00125 -0.010040625 1.13321781633e-05
172 1 -0.028940625 -0.00125 -0.008859375 8.93933467728e-06
173 1 -0.028940625 -0.00125 -0.007678125 8.85561893752e-06
174 1 -0.028940625 -0.00125 -0.006496875 0.00133085829376
175 1 -0.028940625 -0.00125 -0.005315625 0.00721786300005
176 1 -0.028940625 -0.00125 -0.004134375 0.0136356597028
177 1 -0.028940625 -0.00125 -0.002953125 0.0105023128407
178 1 -0.028940625 -0.00125 -0.001771875 0.0101570356962
179 1 -0.028940625 -0.00125 -0.000590625 0.00493232605424
180 1 -0.028940625 -0.00125 0.000590625 0.0108234872174
181 1 -0.028940625 -0.00125 0.001771875 0.0138991766759
182 1 -0.028940625 -0.00125 0.002953125 0.0118470455628
183 1 -0.028940625 -0.00125 0.004134375 3.37079866956e-05
184 1 -0.028940625 -0.00125 0.005315625 4.20423540061e-06
185 1 -0.028940625 -0.00125 0.006496875 1.33875865607e-06
186 1 -0.028940625 -0.00125 0.007678125 5.84705492459e-10
187 1 -0.028940625 -0.00125 0.008859375 1.69799475519e-11
188 1 -0.028940625 -0.00125 0.010040625 3.00372738764e-11
189 1 -0.028940625 -0.00125 0.011221875 3.6200662657e-11
190 1 -0.028940625 -0.00125 0.012403125 9.94703371632e-13
191 1 -0.028940625 -0.00125 0.013584375 2.48371401144e-11
192 1 -0.028940625 -0.00125 0.014765625 5.21677683133e-25
193 1 -0.028940625 -0.00125 0.015946875 1.58160719846e-31
194 1 -0.028940625 -0.00125 0.017128125 1.55476084303e-32
195 1 -0.028940625 -0.00125 0.018309375 3.86884722445e-40
196 1 -0.028940625 -0.00125 0.019490625 4.1791909129e-133
197 1 -0.028940625 -0.00125 0.020671875 2.08945349823e-163
198 1 -0.028940625 -0.00125 0.021853125 7.50473264042e-70
199 1 -0.027759375 -0.00125 -0.024215625 0.00350307387196
200 1 -0.027759375 -0.00125 -0.023034375 0.102207206218
201 1 -0.027759375 -0.00125 -0.021853125 0.418173039707
202 1 -0.027759375 -0.00125 -0.020671875 0.147110697417
203 1 -0.027759375 -0.00125 -0.019490625 0.0217205682665
204 1 -0.027759375 -0.00125 -0.018309375 0.00109868731784
205 1 -0.027759375 -0.00125 -0.017128125 1.80753789561e-05
206 1 -0.027759375 -0.00125 -0.015946875 2.57542228544e-06
207 1 -0.027759375 -0.00125 -0.014765625 1.3874881132e-07
208 1 -0.027759375 -0.00125 -0.013584375 3.50672110023e-08
209 1 -0.027759375 -0.00125 -0.012403125 0.000202345638314
210 1 -0.027759375 -0.00125 -0.011221875 0.000350974716656
211 1 -0.027759375 -0.00125 -0.010040625 0.00150911263708
212 1 -0.027759375 -0.00125 -0.008859375 0.00121078198582
213 1 -0.027759375 -0.00125 -0.007678125 0.00636837835954
214 1 -0.027759375 -0.00125 -0.006496875 0.0219026063159
215 1 -0.027759375 -0.00125 -0.005315625 0.0424948341698
216 1 -0.027759375 -0.00125 -0.004134375 0.0685413563355
217 1 -0.027759375 -0.00125 -0.002953125 0.0586919419204
218 1 -0.027759375 -0.00125 -0.001771875 0.0219027726855
219 1 -0.027759375 -0.00125 -0.000590625 0.0338574406302
220 1 -0.027759375 -0.00125 0.000590625 0.0218769476088
221 1 -0.027759375 -0.00125 0.001771875 0.0298248660467
222 1 -0.027759375 -0.00125 0.002953125 0.0167101591919
223 1 -0.027759375 -0.00125 0.004134375 0.010897822295
224 1 -0.027759375 -0.00125 0.005315625 0.000130163950692
225 1 -0.027759375 -0.00125 0.006496875 4.58851532659e-05
226 1 -0.027759375 -0.00125 0.007678125 0.000129370418921
227 1 -0.027759375 -0.00125 0.008859375 8.20798249571e-05
228 1 -0.027759375 -0.00125 0.010040625 0.000213185831494
229 1 -0.027759375 -0.00125 0.011221875 1.45343021695e-07
230 1 -0.027759375 -0.00125 0.012403125 1.66207919872e-07
231 1 -0.027759375 -0.00125 0.013584375 3.39166137735e-08
232 1 -0.027759375 -0.00125 0.014765625 9.8288835281e-11
233 1 -0.027759375 -0.00125 0.015946875 7.5595811359e-13
234 1 -0.027759375 -0.00125 0.017128125 9.65623467129e-25
235 1 -0.027759375 -0.00125 0.018309375 7.02386311765e-25
236 1 -0.027759375 -0.00125 0.019490625 1.66927096422e-62
237 1 -0.027759375 -0.00125 0.020671875 1.78697065855e-142
238 1 -0.027759375 -0.00125 0.021853125 3.43340207451e-79
239 1 -0.027759375 -0.00125 0.023034375 2.52040625776e-159
240 1 -0.027759375 -0.00125 0.024215625 0.0
241 1 -0.026578125 -0.00125 -0.026578125 0.00226557454466
242 1 -0.026578125 -0.00125 -0.025396875 0.00584619018613
243 1 -0.026578125 -0.00125 -0.024215625 0.00629597401961
244 1 -0.026578125 -0.00125 -0.023034375 0.131044863596
245 1 -0.026578125 -0.00125 -0.021853125 0.402622420545
246 1 -0.026578125 -0.00125 -0.020671875 0.151733003143
247 1 -0.026578125 -0.00125 -0.019490625 0.034800852853
248 1 -0.026578125 -0.00125 -0.018309375 0.00480991431291
249 1 -0.026578125 -0.00125 -0.017128125 6.48592884762e-05
250 1 -0.026578125 -0.00125 -0.015946875 4.021336537e-07
251 1 -0.026578125 -0.00125 -0.014765625 5.20578483535e-07
252 1 -0.026578125 -0.00125 -0.013584375 1.69523931247e-05
253 1 -0.026578125 -0.00125 -0.012403125 0.000309230289368
254 1 -0.026578125 -0.00125 -0.011221875 0.00436726027368
255 1 -0.026578125 -0.00125 -0.010040625 0.0119173817418
256 1 -0.026578125 -0.00125 -0.008859375 0.0357222753619
257 1 -0.026578125 -0.00125 -0.007678125 0.103977976062
258 1 -0.026578125 -0.00125 -0.006496875 0.0949846116439
259 1 -0.026578125 -0.00125 -0.005315625 0.0593191526803
260 1 -0.026578125 -0.00125 -0.004134375 0.0481250637195
261 1 -0.026578125 -0.00125 -0.002953125 0.0415465395846
262 1 -0.026578125 -0.00125 -0.001771875 0.0641098454078
263 1 -0.026578125 -0.00125 -0.000590625 0.0452423930851
264 1 -0.026578125 -0.00125 0.000590625 0.0641303500234
265 1 -0.026578125 -0.00125 0.001771875 0.0391299489442
266 1 -0.026578125 -0.00125 0.002953125 0.0451269068355
267 1 -0.026578125 -0.00125 0.004134375 0.0360007174587
268 1 -0.026578125 -0.00125 0.005315625 0.026239762162
269 1 -0.026578125 -0.00125 0.006496875 0.0050445411189
270 1 -0.026578125 -0.00125 0.007678125 0.00353412276113
271 1 -0.026578125 -0.00125 0.008859375 0.000465481611795
272 1 -0.026578125 -0.00125 0.010040625 0.000521444193029
273 1 -0.026578125 -0.00125 0.011221875 0.00109292860902
274 1 -0.026578125 -0.00125 0.012403125 9.24647229421e-05
275 1 -0.026578125 -0.00125 0.013584375 1.48748227734e-05
276 1 -0.026578125 -0.00125 0.014765625 3.24619103088e-06
277 1 -0.026578125 -0.00125 0.015946875 3.19719091015e-09
278 1 -0.026578125 -0.00125 0.017128125 3.48011826583e-12
279 1 -0.026578125 -0.00125 0.018309375 2.02774714739e-13
280 1 -0.026578125 -0.00125 0.019490625 1.27352840979e-31
281 1 -0.026578125 -0.00125 0.020671875 2.59539618267e-131
282 1 -0.026578125 -0.00125 0.021853125 1.42364552935e-271
283 1 -0.026578125 -0.00125 0.023034375 0.0
284 1 -0.026578125 -0.00125 0.024215625 0.0
285 1 -0.026578125 -0.00125 0.025396875 0.0
286 1 -0.026578125 -0.00125 0.026578125 0.0
287 1 -0.025396875 -0.00125 -0.026578125 0.000301443714948
288 1 -0.025396875 -0.00125 -0.025396875 0.00507527854712
289 1 -0.025396875 -0.00125 -0.024215625 0.0238514428887
290 1 -0.025396875 -0.00125 -0.023034375 0.158630320803
291 1 -0.025396875 -0.00125 -0.021853125 0.260150885571
292 1 -0.025396875 -0.00125 -0.020671875 0.135168241643
293 1 -0.025396875 -0.00125 -0.019490625 0.0142875048148
294 1 -0.025396875 -0.00125 -0.018309375 0.00576817479546
295 1 -0.025396875 -0.00125 -0.017128125 0.000131395079875
296 1 -0.025396875 -0.00125 -0.015946875 9.17065314389e-05
297 1 -0.025396875 -0.00125 -0.014765625 0.000140125054019
298 1 -0.025396875 -0.00125 -0.013584375 0.000338773877883
299 1 -0.025396875 -0.00125 -0.012403125 0.0154935063786
300 1 -0.025396875 -0.00125 -0.011221875 0.0511611985193
301 1 -0.025396875 -0.00125 -0.010040625 0.114206967731
302 1 -0.025396875 -0.00125 -0.008859375 0.122582306482
303 1 -0.025396875 -0.00125 -0.007678125 0.215074126797
304 1 -0.025396875 -0.00125 -0.006496875 0.107117094738
305 1 -0.025396875 -0.00125 -0.005315625 0.0630327732064
306 1 -0.025396875 -0.00125 -0.004134375 0.0604658518469
307 1 -0.025396875 -0.00125 -0.002953125 0.0423249487367
308 1 -0.025396875 -0.00125 -0.001771875 0.0581344643861
309 1 -0.025396875 -0.00125 -0.000590625 0.047573556679
310 1 -0.025396875 -0.00125 0.000590625 0.0778116439971
311 1 -0.025396875 -0.00125 0.001771875 0.0572344175612
312 1 -0.025396875 -0.00125 0.002953125 0.0523422694361
313 1 -0.025396875 -0.00125 0.004134375 0.0474159959306
314 1 -0.025396875 -0.00125 0.005315625 0.0908161324349
315 1 -0.025396875 -0.00125 0.006496875 0.049783092553
316 1 -0.025396875 -0.00125 0.007678125 0.0409434359425
317 1 -0.025396875 -0.00125 0.008859375 0.0216079131019
318 1 -0.025396875 -0.00125 0.010040625 0.0434975746853
319 1 -0.025396875 -0.00125 0.011221875 0.0301630603143
320 1 -0.025396875 -0.00125 0.012403125 0.0120204121875
321 1 -0.025396875 -0.00125 0.013584375 0.00544518287036
322 1 -0.025396875 -0.00125 0.014765625 2.50021829004e-06
323 1 -0.025396875 -0.00125 0.015946875 1.67265459234e-09
324 1 -0.025396875 -0.00125 0.017128125 2.2084534181e-09
325 1 -0.025396875 -0.00125 0.018309375 4.10275370214e-10
326 1 -0.025396875 -0.00125 0.019490625 3.06451330812e-25
327 1 -0.025396875 -0.00125 0.020671875 1.72609198745e-47
328 1 -0.025396875 -0.00125 0.021853125 0.0
329 1 -0.025396875 -0.00125 0.023034375 0.0
330 1 -0.025396875 -0.00125 0.024215625 0.0
331 1 -0.025396875 -0.00125 0.025396875 0.0
332 1 -0.025396875 -0.00125 0.026578125 0.0
333 1 -0.024215625 -0.00125 -0.027759375 0.000194476192665
334 1 -0.024215625 -0.00125 -0.026578125 0.00197627568431
335 1 -0.024215625 -0.00125 -0.025396875 0.0127744745208
336 1 -0.024215625 -0.00125 -0.024215625 0.064314008367
337 1 -0.024215625 -0.00125 -0.023034375 0.0755747955127
338 1 -0.024215625 -0.00125 -0.021853125 0.104347336585
339 1 -0.024215625 -0.00125 -0.020671875 0.0853279058506
340 1 -0.024215625 -0.00125 -0.019490625 0.0159954583306
341 1 -0.024215625 -0.00125 -0.018309375 0.00229589730727
342 1 -0.024215625 -0.00125 -0.017128125 0.00181857711982
343 1 -0.024215625 -0.00125 -0.015946875 0.00399317070854
344 1 -0.024215625 -0.00125 -0.014765625 0.00590099538326
345 1 -0.024215625 -0.00125 -0.013584375 0.0243140637513
346 1 -0.024215625 -0.00125 -0.012403125 0.0842240974171
347 1 -0.024215625 -0.00125 -0.011221875 0.112756532706
348 1 -0.024215625 -0.00125 -0.010040625 0.128189452996
349 1 -0.024215625 -0.00125 -0.008859375 0.139977599495
350 1 -0.024215625 -0.00125 -0.007678125 0.175137218781
351 1 -0.024215625 -0.00125 -0.006496875 0.108509675911
352 1 -0.024215625 -0.00125 -0.005315625 0.039017342046
353 1 -0.024215625 -0.00125 -0.004134375 0.0528022313406
354 1 -0.024215625 -0.00125 -0.002953125 0.0379644871167
355 1 -0.024215625 -0.00125 -0.001771875 0.0553074515276
356 1 -0.024215625 -0.00125 -0.000590625 0.0606090547086
357 1 -0.024215625 -0.00125 0.000590625 0.0969416044066
358 1 -0.024215625 -0.00125 0.001771875 0.0953654481413
359 1 -0.024215625 -0.00125 0.002953125 0.0930483858745
360 1 -0.024215625 -0.00125 0.004134375 0.0675883611949
361 1 -0.024215625 -0.00125 0.005315625 0.0682662736656
362 1 -0.024215625 -0.00125 0.006496875 0.0528166573722
363 1 -0.024215625 -0.00125 0.007678125 0.064769453001
364 1 -0.024215625 -0.00125 0.008859375 0.0564561321633
365 1 -0.024215625 -0.00125 0.010040625 0.0458002854328
366 1 -0.024215625 -0.00125 0.011221875 0.0293881739695
367 1 -0.024215625 -0.00125 0.012403125 0.0399737488109
368 1 -0.024215625 -0.00125 0.013584375 0.0117921231659
369 1 -0.024215625 -0.00125 0.014765625 0.000286578326223
370 1 -0.024215625 -0.00125 0.015946875 1.18376573051e-06
371 1 -0.024215625 -0.00125 0.017128125 5.0072505617e-08
372 1 -0.024215625 -0.00125 0.018309375 1.19776160074e-09
373 1 -0.024215625 -0.00125 0.019490625 1.52652038658e-26
374 1 -0.024215625 -0.00125 0.020671875 1.54327566382e-51
375 1 -0.024215625 -0.00125 0.021853125 7.68330858143e-123
376 1 -0.024215625 -0.00125 0.023034375 0.0
377 1 -0.024215625 -0.00125 0.024215625 0.0
378 1 -0.024215625 -0.00125 0.025396875 0.0
379 1 -0.024215625 -0.00125 0.026578125 0.0
380 1 -0.024215625 -0.00125 0.027759375 1.65775183701e-264
381 1 -0.023034375 -0.00125 -0.027759375 0.00474105219305
382 1 -0.023034375 -0.00125 -0.026578125 0.0551863934121
383 1 -0.023034375 -0.00125 -0.025396875 0.076502437583
384 1 -0.023034375 -0.00125 -0.024215625 0.0794961994404
385 1 -0.023034375 -0.00125 -0.023034375 0.104423033371
386 1 -0.023034375 -0.00125 -0.021853125 0.101718712299
387 1 -0.023034375 -0.00125 -0.020671875 0.0590254338712
388 1 -0.023034375 -0.00125 -0.019490625 0.0265416126629
389 1 -0.023034375 -0.00125 -0.018309375 0.0270041788097
390 1 -0.023034375 -0.00125 -0.017128125 0.056047473399
391 1 -0.023034375 -0.00125 -0.015946875 0.0319065882555
392 1 -0.023034375 -0.00125 -0.014765625 0.0509246802881
393 1 -0.023034375 -0.00125 -0.013584375 0.104747810173
394 1 -0.023034375 -0.00125 -0.012403125 0.133043684355
395 1 -0.023034375 -0.00125 -0.011221875 0.15645802399
396 1 -0.023034375 -0.00125 -0.010040625 0.110216902351
397 1 -0.023034375 -0.00125 -0.008859375 0.119543348621
398 1 -0.023034375 -0.00125 -0.007678125 0.123224488587
399 1 -0.023034375 -0.00125 -0.006496875 0.0980437027719
400 1 -0.023034375 -0.00125 -0.005315625 0.0836678869786
401 1 -0.023034375 -0.00125 -0.004134375 0.0767154431572
402 1 -0.023034375 -0.00125 -0.002953125 0.063628771833
403 1 -0.023034375 -0.00125 -0.001771875 0.0926237067296
404 1 -0.023034375 -0.00125 -0.000590625 0.0975306685128
405 1 -0.023034375 -0.00125 0.000590625 0.145108193857
406 1 -0.023034375 -0.00125 0.001771875 0.177293535839
407 1 -0.023034375 -0.00125 0.002953125 0.137011294729
408 1 -0.023034375 -0.00125 0.004134375 0.0989248883337
409 1 -0.023034375 -0.00125 0.005315625 0.0815375100399
410 1 -0.023034375 -0.00125 0.006496875 0.0995630175406
411 1 -0.023034375 -0.00125 0.007678125 0.0900031625943
412 1 -0.023034375 -0.00125 0.008859375 0.11891309466
413 1 -0.023034375 -0.00125 0.010040625 0.0938428416023
414 1 -0.023034375 -0.00125 0.011221875 0.0474955574958
415 1 -0.023034375 -0.00125 0.012403125 0.0403344234982
416 1 -0.023034375 -0.00125 0.013584375 0.0122862554253
417 1 -0.023034375 -0.00125 0.014765625 0.00181234987611
418 1 -0.023034375 -0.00125 0.015946875 6.35908064552e-05
419 1 -0.023034375 -0.00125 0.017128125 1.727827988e-08
420 1 -0.023034375 -0.00125 0.018309375 9.6525076368e-08
421 1 -0.023034375 -0.00125 0.019490625 1.12898434747e-11
422 1 -0.023034375 -0.00125 0.020671875 3.26453977774e-19
423 1 -0.023034375 -0.00125 0.021853125 1.87379573405e-129
424 1 -0.023034375 -0.00125 0.023034375 0.0
425 1 -0.023034375 -0.00125 0.024215625 0.0
426 1 -0.023034375 -0.00125 0.025396875 0.0
427 1 -0.023034375 -0.00125 0.026578125 1.51447820616e-241
428 1 -0.023034375 -0.00125 0.027759375 7.88781194426e-50
429 1 -0.021853125 -0.00125 -0.028940625 0.0204095750072
430 1 -0.021853125 -0.00125 -0.027759375 0.0737137394682
431 1 -0.021853125 -0.00125 -0.026578125 0.0650540781503
432 1 -0.021853125 -0.00125 -0.025396875 0.0834273267969
433 1 -0.021853125 -0.00125 -0.024215625 0.0927847459728
434 1 -0.021853125 -0.00125 -0.023034375 0.0970264863877
435 1 -0.021853125 -0.00125 -0.021853125 0.112627845501
436 1 -0.021853125 -0.00125 -0.020671875 0.108894796876
437 1 -0.021853125 -0.00125 -0.019490625 0.101750527405
438 1 -0.021853125 -0.00125 -0.018309375 0.0986280555802
439 1 -0.021853125 -0.00125 -0.017128125 0.125996850961
440 1 -0.021853125 -0.00125 -0.015946875 0.117590517891
441 1 -0.021853125 -0.00125 -0.014765625 0.16161141563
442 1 -0.021853125 -0.00125 -0.013584375 0.164366049111
443 1 -0.021853125 -0.00125 -0.012403125 0.14629352917
444 1 -0.021853125 -0.00125 -0.011221875 0.120499994648
445 1 -0.021853125 -0.00125 -0.010040625 0.0774591571828
446 1 -0.021853125 -0.00125 -0.008859375 0.10026924857
447 1 -0.021853125 -0.00125 -0.007678125 0.147940741907
448 1 -0.021853125 -0.00125 -0.006496875 0.0774542230223
449 1 -0.021853125 -0.00125 -0.005315625 0.0452040793048
450 1 -0.021853125 -0.00125 -0.004134375 0.0638022928589
451 1 -0.021853125 -0.00125 -0.002953125 0.0721057273419
452 1 -0.021853125 -0.00125 -0.001771875 0.102592962261
453 1 -0.021853125 -0.00125 -0.000590625 0.127644926464
454 1 -0.021853125 -0.00125 0.000590625 0.184732340914
455 1 -0.021853125 -0.00125 0.001771875 0.167170723457
456 1 -0.021853125 -0.00125 0.002953125 0.151022657593
457 1 -0.021853125 -0.00125 0.004134375 0.142910396408
458 1 -0.021853125 -0.00125 0.005315625 0.191810026926
459 1 -0.021853125 -0.00125 0.006496875 0.198100977788
460 1 -0.021853125 -0.00125 0.007678125 0.149059906652
461 1 -0.021853125 -0.00125 0.008859375 0.15213344882
462 1 -0.021853125 -0.00125 0.010040625 0.0791632649825
463 1 -0.021853125 -0.00125 0.011221875 0.0370452300686
464 1 -0.021853125 -0.00125 0.012403125 0.0305004199576
465 1 -0.021853125 -0.00125 0.013584375 0.0240404186399
466 1 -0.021853125 -0.00125 0.014765625 0.00436497107459
467 1 -0.021853125 -0.00125 0.015946875 0.000372583188842
468 1 -0.021853125 -0.00125 0.017128125 1.70010538156e-05
469 1 -0.021853125 -0.00125 0.018309375 4.49516948229e-07
470 1 -0.021853125 -0.00125 0.019490625 4.45775926668e-08
471 1 -0.021853125 -0.00125 0.020671875 3.42181273351e-20
472 1 -0.021853125 -0.00125 0.021853125 5.60485610156e-42
473 1 -0.021853125 -0.00125 0.023034375 2.05897845416e-84
474 1 -0.021853125 -0.00125 0.024215625 8.4180769436e-101
475 1 -0.021853125 -0.00125 0.025396875 3.58406783814e-92
476 1 -0.021853125 -0.00125 0.026578125 1.04738243045e-40
477 1 -0.021853125 -0.00125 0.027759375 2.28582463517e-27
478 1 -0.021853125 -0.00125 0.028940625 4.01945439364e-31
479 1 -0.020671875 -0.00125 -0.030121875 0.00807216449055
480 1 -0.020671875 -0.00125 -0.028940625 0.0186735951248
481 1 -0.020671875 -0.00125 -0.027759375 0.0677661240205
482 1 -0.020671875 -0.00125 -0.026578125 0.0643013916237
483 1 -0.020671875 -0.00125 -0.025396875 0.0918468425247
484 1 -0.020671875 -0.00125 -0.024215625 0.111523210655
485 1 -0.020671875 -0.00125 -0.023034375 0.11497707144
486 1 -0.020671875 -0.00125 -0.021853125 0.189275592646
487 1 -0.020671875 -0.00125 -0.020671875 0.140077399398
488 1 -0.020671875 -0.00125 -0.019490625 0.197399977508
489 1 -0.020671875 -0.00125 -0.018309375 0.204917470053
490 1 -0.020671875 -0.00125 -0.017128125 0.176719572356
491 1 -0.020671875 -0.00125 -0.015946875 0.158152762781
492 1 -0.020671875 -0.00125 -0.014765625 0.150531882372
493 1 -0.020671875 -0.00125 -0.013584375 0.15200896192
494 1 -0.020671875 -0.00125 -0.012403125 0.161257637407
495 1 -0.020671875 -0.00125 -0.011221875 0.0306564209651
496 1 -0.020671875 -0.00125 -0.010040625 0.0559864689989
497 1 -0.020671875 -0.00125 -0.008859375 0.0462292749644
498 1 -0.020671875 -0.00125 -0.007678125 0.0545932313876
499 1 -0.020671875 -0.00125 -0.006496875 0.0649227719066
500 1 -0.020671875 -0.00125 -0.005315625 0.0997441978206
501 1 -0.020671875 -0.00125 -0.004134375 0.126278493005
502 1 -0.020671875 -0.00125 -0.002953125 0.122060504423
503 1 -0.020671875 -0.00125 -0.001771875 0.189409342499
504 1 -0.020671875 -0.00125 -0.000590625 0.204273022234
505 1 -0.020671875 -0.00125 0.000590625 0.205411440245
506 1 -0.020671875 -0.00125 0.001771875 0.221823901377
507 1 -0.020671875 -0.00125 0.002953125 0.198422929102
508 1 -0.020671875 -0.00125 0.004134375 0.160738516843
509 1 -0.020671875 -0.00125 0.005315625 0.16499622996
510 1 -0.020671875 -0.00125 0.006496875 0.142473151559
511 1 -0.020671875 -0.00125 0.007678125 0.0914441576506
512 1 -0.020671875 -0.00125 0.008859375 0.11525638806
513 1 -0.020671875 -0.00125 0.010040625 0.0384824656505
514 1 -0.020671875 -0.00125 0.011221875 0.0252623678979
515 1 -0.020671875 -0.00125 0.012403125 0.0319940654321
516 1 -0.020671875 -0.00125 0.013584375 0.00785970307111
517 1 -0.020671875 -0.00125 0.014765625 0.00859291014308
518 1 -0.020671875 -0.00125 0.015946875 0.00209485638688
519 1 -0.020671875 -0.00125 0.017128125 0.000250987044467
520 1 -0.020671875 -0.00125 0.018309375 6.66205454679e-05
521 1 -0.020671875 -0.00125 0.019490625 3.56930062041e-08
522 1 -0.020671875 -0.00125 0.020671875 9.06061133265e-26
523 1 -0.020671875 -0.00125 0.021853125 1.83661437997e-41