ITEM: TIMESTEP
0
ITEM: NUMBER OF ATOMS
3080
ITEM: BOX BOUNDS ss ss ss
-3.7007399999999996e-02 3.7007399999999996e-02
-2.0002499999999999e-03 2.5000000000000004e-07
-3.7007399999999996e-02 3.7007399999999996e-02
ITEM: ATOMS id type x y z c_1
0 1 -0.037209375 -0.00125 -0.000590625 0.981608465543
1 1 -0.036028125 -0.00125 -0.007678125 0.00330623629588
2 1 -0.036028125 -0.00125 -0.006496875 7.59742630726e-05
3 1 -0.036028125 -0.00125 -0.005315625 8.98589361103e-06
4 1 -0.036028125 -0.00125 -0.004134375 0.000150873471749
5 1 -0.036028125 -0.00125 -0.002953125 0.0536018671343
6 1 -0.036028125 -0.00125 -0.001771875 0.145927126732
7 1 -0.036028125 -0.00125 -0.000590625 0.0895466720885
8 1 -0.036028125 -0.00125 0.000590625 0.00157312598476
9 1 -0.036028125 -0.00125 0.001771875 0.00136107539496
10 1 -0.036028125 -0.00125 0.002953125 5.41195394002e-07
11 1 -0.036028125 -0.00125 0.004134375 7.8621406936e-09
12 1 -0.036028125 -0.00125 0.005315625 1.00230351803e-08
13 1 -0.036028125 -0.00125 0.006496875 1.33103557597e-06
14 1 -0.036028125 -0.00125 0.007678125 2.27043470418e-05
15 1 -0.034846875 -0.00125 -0.011221875 0.0304507383135
16 1 -0.034846875 -0.00125 -0.010040625 0.0238359641921
17 1 -0.034846875 -0.00125 -0.008859375 0.136374536729
18 1 -0.034846875 -0.00125 -0.007678125 0.000511229159084
19 1 -0.034846875 -0.00125 -0.006496875 0.000173346028795
20 1 -0.034846875 -0.00125 -0.005315625 8.3309415728e-06
21 1 -0.034846875 -0.00125 -0.004134375 1.99054870247e-05
22 1 -0.034846875 -0.00125 -0.002953125 0.0495548845791
23 1 -0.034846875 -0.00125 -0.001771875 0.12872445692
24 1 -0.034846875 -0.00125 -0.000590625 0.0737499317219
25 1 -0.034846875 -0.00125 0.000590625 0.0018158435173
26 1 -0.034846875 -0.00125 0.001771875 2.74461302102e-05
27 1 -0.034846875 -0.00125 0.002953125 1.25155502446e-07
28 1 -0.034846875 -0.00125 0.004134375 4.41747135655e-10
29 1 -0.034846875 -0.00125 0.005315625 2.99656520944e-10
30 1 -0.034846875 -0.00125 0.006496875 1.05326636711e-09
31 1 -0.034846875 -0.00125 0.007678125 1.16212002217e-05
32 1 -0.034846875 -0.00125 0.008859375 0.0111524342347
33 1 -0.034846875 -0.00125 0.010040625 0.000941305956029
34 1 -0.034846875 -0.00125 0.011221875 0.000538919193692
35 1 -0.033665625 -0.00125 -0.013584375 0.008641471659
36 1 -0.033665625 -0.00125 -0.012403125 0.196461628635
37 1 -0.033665625 -0.00125 -0.011221875 0.0706367763487
38 1 -0.033665625 -0.00125 -0.010040625 0.0430145901931
39 1 -0.033665625 -0.00125 -0.008859375 0.0659508886797
40 1 -0.033665625 -0.00125 -0.007678125 0.00723817199615
41 1 -0.033665625 -0.00125 -0.006496875 0.000599232091411
42 1 -0.033665625 -0.00125 -0.005315625 2.00387314586e-05
43 1 -0.033665625 -0.00125 -0.004134375 0.0132473076253
44 1 -0.033665625 -0.00125 -0.002953125 0.0465741204752
45 1 -0.033665625 -0.00125 -0.001771875 0.132184937283
46 1 -0.033665625 -0.00125 -0.000590625 0.145225967747
47 1 -0.033665625 -0.00125 0.000590625 0.00891162702042
48 1 -0.033665625 -0.00125 0.001771875 0.000122748953457
49 1 -0.033665625 -0.00125 0.002953125 1.4873046361e-05
50 1 -0.033665625 -0.00125 0.004134375 1.64776144412e-08
51 1 -0.033665625 -0.00125 0.005315625 1.03844848762e-08
52 1 -0.033665625 -0.00125 0.006496875 3.04443043431e-07
53 1 -0.033665625 -0.00125 0.007678125 0.000108167739244
54 1 -0.033665625 -0.00125 0.008859375 0.00555420757568
55 1 -0.033665625 -0.00125 0.010040625 0.001537115472
56 1 -0.033665625 -0.00125 0.011221875 0.00213648427027
57 1 -0.033665625 -0.00125 0.012403125 0.0104010351766
58 1 -0.033665625 -0.00125 0.013584375 3.94728218202e-05
59 1 -0.032484375 -0.00125 -0.018309375 0.0300012448041
60 1 -0.032484375 -0.00125 -0.017128125 0.0626461540257
61 1 -0.032484375 -0.00125 -0.015946875 0.119306585124
62 1 -0.032484375 -0.00125 -0.014765625 0.0621390048592
63 1 -0.032484375 -0.00125 -0.013584375 0.0273425013925
64 1 -0.032484375 -0.00125 -0.012403125 0.2543254862
65 1 -0.032484375 -0.00125 -0.011221875 0.157683786526
66 1 -0.032484375 -0.00125 -0.010040625 0.104540509205
67 1 -0.032484375 -0.00125 -0.008859375 0.153141101381
68 1 -0.032484375 -0.00125 -0.007678125 0.0295417508189
69 1 -0.032484375 -0.00125 -0.006496875 0.000952773520437
70 1 -0.032484375 -0.00125 -0.005315625 0.00133251597224
71 1 -0.032484375 -0.00125 -0.004134375 0.0105878199258
72 1 -0.032484375 -0.00125 -0.002953125 0.0218630765181
73 1 -0.032484375 -0.00125 -0.001771875 0.057983268694
74 1 -0.032484375 -0.00125 -0.000590625 0.128265350575
75 1 -0.032484375 -0.00125 0.000590625 0.0519877607526
76 1 -0.032484375 -0.00125 0.001771875 0.042518380556
77 1 -0.032484375 -0.00125 0.002953125 0.00569788815733
78 1 -0.032484375 -0.00125 0.004134375 0.00536719788776
79 1 -0.032484375 -0.00125 0.005315625 0.00064789302356
80 1 -0.032484375 -0.00125 0.006496875 0.00273435299936
81 1 -0.032484375 -0.00125 0.007678125 0.0033050906386
82 1 -0.032484375 -0.00125 0.008859375 0.0167137808883
83 1 -0.032484375 -0.00125 0.010040625 0.00775541945177
84 1 -0.032484375 -0.00125 0.011221875 0.00950765032754
85 1 -0.032484375 -0.00125 0.012403125 0.00423292044893
86 1 -0.032484375 -0.00125 0.013584375 4.94036931479e-06
87 1 -0.032484375 -0.00125 0.014765625 6.79741677159e-05
88 1 -0.032484375 -0.00125 0.015946875 1.90362572389e-05
89 1 -0.032484375 -0.00125 0.017128125 3.28381164639e-06
90 1 -0.032484375 -0.00125 0.018309375 4.8248612732e-07
91 1 -0.031303125 -0.00125 -0.019490625 0.0250823258586
92 1 -0.031303125 -0.00125 -0.018309375 0.086658109334
93 1 -0.031303125 -0.00125 -0.017128125 0.17110155117
94 1 -0.031303125 -0.00125 -0.015946875 0.192302595513
95 1 -0.031303125 -0.00125 -0.014765625 0.240864365824
96 1 -0.031303125 -0.00125 -0.013584375 0.124526291582
97 1 -0.031303125 -0.00125 -0.012403125 0.244965202042
98 1 -0.031303125 -0.00125 -0.011221875 0.183310427361
99 1 -0.031303125 -0.00125 -0.010040625 0.132256904138
100 1 -0.031303125 -0.00125 -0.008859375 0.0701863510823
101 1 -0.031303125 -0.00125 -0.007678125 0.0230505763199
102 1 -0.031303125 -0.00125 -0.006496875 0.00408161959466
103 1 -0.031303125 -0.00125 -0.005315625 0.00524537080897
104 1 -0.031303125 -0.00125 -0.004134375 0.000830051944613
105 1 -0.031303125 -0.00125 -0.002953125 0.00703304269893
106 1 -0.031303125 -0.00125 -0.001771875 0.0239077472368
107 1 -0.031303125 -0.00125 -0.000590625 0.0975268883453
108 1 -0.031303125 -0.00125 0.000590625 0.0686677436908
109 1 -0.031303125 -0.00125 0.001771875 0.0442237712623
110 1 -0.031303125 -0.00125 0.002953125 0.0645862754169
111 1 -0.031303125 -0.00125 0.004134375 0.0330144698978
112 1 -0.031303125 -0.00125 0.005315625 0.0229080684373
113 1 -0.031303125 -0.00125 0.006496875 0.0155218563777
114 1 -0.031303125 -0.00125 0.007678125 0.015741110152
115 1 -0.031303125 -0.00125 0.008859375 0.00834558539185
116 1 -0.031303125 -0.00125 0.010040625 0.00635316160717
117 1 -0.031303125 -0.00125 0.011221875 0.0111823430598
118 1 -0.031303125 -0.00125 0.012403125 0.00789180816901
119 1 -0.031303125 -0.00125 0.013584375 0.000404706080124
120 1 -0.031303125 -0.00125 0.014765625 9.51504329947e-05
121 1 -0.031303125 -0.00125 0.015946875 1.49041477594e-05
122 1 -0.031303125 -0.00125 0.017128125 1.50267947693e-07
123 1 -0.031303125 -0.00125 0.018309375 4.57655766556e-07
124 1 -0.031303125 -0.00125 0.019490625 3.58449896e-09
125 1 -0.030121875 -0.00125 -0.020671875 0.00782129627418
126 1 -0.030121875 -0.00125 -0.019490625 0.0510374238911
127 1 -0.030121875 -0.00125 -0.018309375 0.13293448904
128 1 -0.030121875 -0.00125 -0.017128125 0.196914914741
129 1 -0.030121875 -0.00125 -0.015946875 0.36200438986
130 1 -0.030121875 -0.00125 -0.014765625 0.265120791758
131 1 -0.030121875 -0.00125 -0.013584375 0.143442348157
132 1 -0.030121875 -0.00125 -0.012403125 0.18779200201
133 1 -0.030121875 -0.00125 -0.011221875 0.0762821106665
134 1 -0.030121875 -0.00125 -0.010040625 0.0298973423574
135 1 -0.030121875 -0.00125 -0.008859375 0.0128241841979
136 1 -0.030121875 -0.00125 -0.007678125 0.00609077115283
137 1 -0.030121875 -0.00125 -0.006496875 0.000522433710055
138 1 -0.030121875 -0.00125 -0.005315625 0.00219200101302
139 1 -0.030121875 -0.00125 -0.004134375 0.00177985408299
140 1 -0.030121875 -0.00125 -0.002953125 0.0037402482463
141 1 -0.030121875 -0.00125 -0.001771875 0.0340062515755
142 1 -0.030121875 -0.00125 -0.000590625 0.0394877152433
143 1 -0.030121875 -0.00125 0.000590625 0.058761544888
144 1 -0.030121875 -0.00125 0.001771875 0.0751858045574
145 1 -0.030121875 -0.00125 0.002953125 0.0686961624058
146 1 -0.030121875 -0.00125 0.004134375 0.0564253574858
147 1 -0.030121875 -0.00125 0.005315625 0.0705793145461
148 1 -0.030121875 -0.00125 0.006496875 0.0182605770668
149 1 -0.030121875 -0.00125 0.007678125 0.0249722974609
150 1 -0.030121875 -0.00125 0.008859375 0.0114396853284
151 1 -0.030121875 -0.00125 0.010040625 0.0236168534206
152 1 -0.030121875 -0.00125 0.011221875 0.0279342321796
153 1 -0.030121875 -0.00125 0.012403125 0.0210236454279
154 1 -0.030121875 -0.00125 0.013584375 0.0102450272567
155 1 -0.030121875 -0.00125 0.014765625 0.00366674702167
156 1 -0.030121875 -0.00125 0.015946875 4.69264952927e-05
157 1 -0.030121875 -0.00125 0.017128125 4.43940008111e-05
158 1 -0.030121875 -0.00125 0.018309375 3.44542320539e-06
159 1 -0.030121875 -0.00125 0.019490625 1.36391888061e-09
160 1 -0.030121875 -0.00125 0.020671875 1.31766686077e-16
161 1 -0.028940625 -0.00125 -0.021853125 0.0438602548645
162 1 -0.028940625 -0.00125 -0.020671875 0.0347543134046
163 1 -0.028940625 -0.00125 -0.019490625 0.0919784934456
164 1 -0.028940625 -0.00125 -0.018309375 0.14143413646
165 1 -0.028940625 -0.00125 -0.017128125 0.205064870953
166 1 -0.028940625 -0.00125 -0.015946875 0.252819048383
167 1 -0.028940625 -0.00125 -0.014765625 0.228462778688
168 1 -0.028940625 -0.00125 -0.013584375 0.119981439803
169 1 -0.028940625 -0.00125 -0.012403125 0.056967435224
170 1 -0.028940625 -0.00125 -0.011221875 0.0479385652326
171 1 -0.028940625 -0.00125 -0.010040625 0.0152845926305
172 1 -0.028940625 -0.00125 -0.008859375 0.00494115871891
173 1 -0.028940625 -0.00125 -0.007678125 0.00310854015555
174 1 -0.028940625 -0.00125 -0.006496875 0.00442209034577
175 1 -0.028940625 -0.00125 -0.005315625 0.00499957060001
176 1 -0.028940625 -0.00125 -0.004134375 0.00830549311453
177 1 -0.028940625 -0.00125 -0.002953125 0.0113273754345
178 1 -0.028940625 -0.00125 -0.001771875 0.02750393059
179 1 -0.028940625 -0.00125 -0.000590625 0.0586409315602
180 1 -0.028940625 -0.00125 0.000590625 0.0482784877647
181 1 -0.028940625 -0.00125 0.001771875 0.0293143571651
182 1 -0.028940625 -0.00125 0.002953125 0.0378716582165
183 1 -0.028940625 -0.00125 0.004134375 0.0175803122653
184 1 -0.028940625 -0.00125 0.005315625 0.0208101630412
185 1 -0.028940625 -0.00125 0.006496875 0.0395476075398
186 1 -0.028940625 -0.00125 0.007678125 0.016974477442
187 1 -0.028940625 -0.00125 0.008859375 0.00949291474714
188 1 -0.028940625 -0.00125 0.010040625 0.0214137905893
189 1 -0.028940625 -0.00125 0.011221875 0.0438092181106
190 1 -0.028940625 -0.00125 0.012403125 0.0303801324252
191 1 -0.028940625 -0.00125 0.013584375 0.0221788072715
192 1 -0.028940625 -0.00125 0.014765625 0.003131318752
193 1 -0.028940625 -0.00125 0.015946875 0.000744334811228
194 1 -0.028940625 -0.00125 0.017128125 0.000376013518817
195 1 -0.028940625 -0.00125 0.018309375 7.84002891617e-05
196 1 -0.028940625 -0.00125 0.019490625 2.17765819194e-08
197 1 -0.028940625 -0.00125 0.020671875 2.98734192471e-09
198 1 -0.028940625 -0.00125 0.021853125 2.74581212277e-05
199 1 -0.027759375 -0.00125 -0.024215625 6.0575359903e-05
200 1 -0.027759375 -0.00125 -0.023034375 0.0071808366197
201 1 -0.027759375 -0.00125 -0.021853125 0.0326180085619
202 1 -0.027759375 -0.00125 -0.020671875 0.0206615712249
203 1 -0.027759375 -0.00125 -0.019490625 0.0655881004774
204 1 -0.027759375 -0.00125 -0.018309375 0.11866674847
205 1 -0.027759375 -0.00125 -0.017128125 0.210549854398
206 1 -0.027759375 -0.00125 -0.015946875 0.155557101616
207 1 -0.027759375 -0.00125 -0.014765625 0.161303030863
208 1 -0.027759375 -0.00125 -0.013584375 0.0778202559891
209 1 -0.027759375 -0.00125 -0.012403125 0.0423099316671
210 1 -0.027759375 -0.00125 -0.011221875 0.0515796792088
211 1 -0.027759375 -0.00125 -0.010040625 0.0180261232713
212 1 -0.027759375 -0.00125 -0.008859375 0.0147390493268
213 1 -0.027759375 -0.00125 -0.007678125 0.0407919596742
214 1 -0.027759375 -0.00125 -0.006496875 0.01479425522
215 1 -0.027759375 -0.00125 -0.005315625 0.0202943372696
216 1 -0.027759375 -0.00125 -0.004134375 0.0231313667323
217 1 -0.027759375 -0.00125 -0.002953125 0.0225768321671
218 1 -0.027759375 -0.00125 -0.001771875 0.0629057367342
219 1 -0.027759375 -0.00125 -0.000590625 0.0867751501967
220 1 -0.027759375 -0.00125 0.000590625 0.0683351915198
221 1 -0.027759375 -0.00125 0.001771875 0.0794891436983
222 1 -0.027759375 -0.00125 0.002953125 0.0389124588371
223 1 -0.027759375 -0.00125 0.004134375 0.045507027433
224 1 -0.027759375 -0.00125 0.005315625 0.0518155823371
225 1 -0.027759375 -0.00125 0.006496875 0.072711055933
226 1 -0.027759375 -0.00125 0.007678125 0.0968077259158
227 1 -0.027759375 -0.00125 0.008859375 0.058787024972
228 1 -0.027759375 -0.00125 0.010040625 0.0583850061973
229 1 -0.027759375 -0.00125 0.011221875 0.0490982664964
230 1 -0.027759375 -0.00125 0.012403125 0.0542383203906
231 1 -0.027759375 -0.00125 0.013584375 0.0529236298892
232 1 -0.027759375 -0.00125 0.014765625 0.0273738866609
233 1 -0.027759375 -0.00125 0.015946875 0.00200634966538
234 1 -0.027759375 -0.00125 0.017128125 0.00106341321989
235 1 -0.027759375 -0.00125 0.018309375 0.000193556554467
236 1 -0.027759375 -0.00125 0.019490625 6.56755409381e-06
237 1 -0.027759375 -0.00125 0.020671875 7.93777993265e-07
238 1 -0.027759375 -0.00125 0.021853125 2.96753747294e-05
239 1 -0.027759375 -0.00125 0.023034375 9.72521941269e-08
240 1 -0.027759375 -0.00125 0.024215625 1.85988881135e-31
241 1 -0.026578125 -0.00125 -0.026578125 0.000187570500295
242 1 -0.026578125 -0.00125 -0.025396875 0.000130425806254
243 1 -0.026578125 -0.00125 -0.024215625 0.000126571149097
244 1 -0.026578125 -0.00125 -0.023034375 0.00232692686106
245 1 -0.026578125 -0.00125 -0.021853125 0.0161971511339
246 1 -0.026578125 -0.00125 -0.020671875 0.0340997445714
247 1 -0.026578125 -0.00125 -0.019490625 0.07472582256
248 1 -0.026578125 -0.00125 -0.018309375 0.123152429792
249 1 -0.026578125 -0.00125 -0.017128125 0.15988323506
250 1 -0.026578125 -0.00125 -0.015946875 0.200186183937
251 1 -0.026578125 -0.00125 -0.014765625 0.152735238111
252 1 -0.026578125 -0.00125 -0.013584375 0.0945546927254
253 1 -0.026578125 -0.00125 -0.012403125 0.0472010402386
254 1 -0.026578125 -0.00125 -0.011221875 0.0546573861211
255 1 -0.026578125 -0.00125 -0.010040625 0.0392867460361
256 1 -0.026578125 -0.00125 -0.008859375 0.064337388265
257 1 -0.026578125 -0.00125 -0.007678125 0.0890034758498
258 1 -0.026578125 -0.00125 -0.006496875 0.0420231090267
259 1 -0.026578125 -0.00125 -0.005315625 0.0333107615538
260 1 -0.026578125 -0.00125 -0.004134375 0.0391118469118
261 1 -0.026578125 -0.00125 -0.002953125 0.052347404194
262 1 -0.026578125 -0.00125 -0.001771875 0.0934592455646
263 1 -0.026578125 -0.00125 -0.000590625 0.11792382396
264 1 -0.026578125 -0.00125 0.000590625 0.133465847662
265 1 -0.026578125 -0.00125 0.001771875 0.112790809291
266 1 -0.026578125 -0.00125 0.002953125 0.165621027215
267 1 -0.026578125 -0.00125 0.004134375 0.154248476969
268 1 -0.026578125 -0.00125 0.005315625 0.13178852165
269 1 -0.026578125 -0.00125 0.006496875 0.0678664420449
270 1 -0.026578125 -0.00125 0.007678125 0.0580112209481
271 1 -0.026578125 -0.00125 0.008859375 0.0842737557899
272 1 -0.026578125 -0.00125 0.010040625 0.0813575311442
273 1 -0.026578125 -0.00125 0.011221875 0.0836985469675
274 1 -0.026578125 -0.00125 0.012403125 0.052191621778
275 1 -0.026578125 -0.00125 0.013584375 0.0683552770732
276 1 -0.026578125 -0.00125 0.014765625 0.0386417190437
277 1 -0.026578125 -0.00125 0.015946875 0.00951955517077
278 1 -0.026578125 -0.00125 0.017128125 0.00913713627672
279 1 -0.026578125 -0.00125 0.018309375 0.0018603548494
280 1 -0.026578125 -0.00125 0.019490625 0.000130041876044
281 1 -0.026578125 -0.00125 0.020671875 1.40738925508e-07
282 1 -0.026578125 -0.00125 0.021853125 4.94039457919e-11
283 1 -0.026578125 -0.00125 0.023034375 6.86638587301e-14
284 1 -0.026578125 -0.00125 0.024215625 1.07218910036e-19
285 1 -0.026578125 -0.00125 0.025396875 7.37282168114e-26
286 1 -0.026578125 -0.00125 0.026578125 1.31853968334e-19
287 1 -0.025396875 -0.00125 -0.026578125 5.46044330916e-06
288 1 -0.025396875 -0.00125 -0.025396875 0.00116574678669
289 1 -0.025396875 -0.00125 -0.024215625 0.00749615148818
290 1 -0.025396875 -0.00125 -0.023034375 0.0197900287165
291 1 -0.025396875 -0.00125 -0.021853125 0.0313338992021
292 1 -0.025396875 -0.00125 -0.020671875 0.07597258087
293 1 -0.025396875 -0.00125 -0.019490625 0.107150497913
294 1 -0.025396875 -0.00125 -0.018309375 0.169897603226
295 1 -0.025396875 -0.00125 -0.017128125 0.204095183645
296 1 -0.025396875 -0.00125 -0.015946875 0.21942881473
297 1 -0.025396875 -0.00125 -0.014765625 0.197917297911
298 1 -0.025396875 -0.00125 -0.013584375 0.115532113157
299 1 -0.025396875 -0.00125 -0.012403125 0.100122015332
300 1 -0.025396875 -0.00125 -0.011221875 0.148748172073
301 1 -0.025396875 -0.00125 -0.010040625 0.127899712356
302 1 -0.025396875 -0.00125 -0.008859375 0.174667629491
303 1 -0.025396875 -0.00125 -0.007678125 0.125704485828
304 1 -0.025396875 -0.00125 -0.006496875 0.105152092194
305 1 -0.025396875 -0.00125 -0.005315625 0.0825687071244
306 1 -0.025396875 -0.00125 -0.004134375 0.0634362716725
307 1 -0.025396875 -0.00125 -0.002953125 0.0775557114086
308 1 -0.025396875 -0.00125 -0.001771875 0.119727371045
309 1 -0.025396875 -0.00125 -0.000590625 0.136142919729
310 1 -0.025396875 -0.00125 0.000590625 0.118372640799
311 1 -0.025396875 -0.00125 0.001771875 0.0984139341757
312 1 -0.025396875 -0.00125 0.002953125 0.146543677921
313 1 -0.025396875 -0.00125 0.004134375 0.17006863907
314 1 -0.025396875 -0.00125 0.005315625 0.235762767308
315 1 -0.025396875 -0.00125 0.006496875 0.217537087315
316 1 -0.025396875 -0.00125 0.007678125 0.163202081582
317 1 -0.025396875 -0.00125 0.008859375 0.170041227891
318 1 -0.025396875 -0.00125 0.010040625 0.161794968092
319 1 -0.025396875 -0.00125 0.011221875 0.104422241037
320 1 -0.025396875 -0.00125 0.012403125 0.103497913108
321 1 -0.025396875 -0.00125 0.013584375 0.109074165678
322 1 -0.025396875 -0.00125 0.014765625 0.039219228045
323 1 -0.025396875 -0.00125 0.015946875 0.0213557854566
324 1 -0.025396875 -0.00125 0.017128125 0.0138770096131
325 1 -0.025396875 -0.00125 0.018309375 0.00537418520267
326 1 -0.025396875 -0.00125 0.019490625 0.000133915441042
327 1 -0.025396875 -0.00125 0.020671875 3.48627111824e-05
328 1 -0.025396875 -0.00125 0.021853125 5.74429745005e-09
329 1 -0.025396875 -0.00125 0.023034375 1.37780191907e-08
330 1 -0.025396875 -0.00125 0.024215625 2.35319172504e-14
331 1 -0.025396875 -0.00125 0.025396875 1.99775038754e-15
332 1 -0.025396875 -0.00125 0.026578125 4.73422558874e-42
333 1 -0.024215625 -0.00125 -0.027759375 0.000361129571854
334 1 -0.024215625 -0.00125 -0.026578125 0.00600193303786
335 1 -0.024215625 -0.00125 -0.025396875 0.0133782013158
336 1 -0.024215625 -0.00125 -0.024215625 0.0349997412475
337 1 -0.024215625 -0.00125 -0.023034375 0.0459667054359
338 1 -0.024215625 -0.00125 -0.021853125 0.0758964273901
339 1 -0.024215625 -0.00125 -0.020671875 0.158374955407
340 1 -0.024215625 -0.00125 -0.019490625 0.231298703294
341 1 -0.024215625 -0.00125 -0.018309375 0.20327515875
342 1 -0.024215625 -0.00125 -0.017128125 0.272197556858
343 1 -0.024215625 -0.00125 -0.015946875 0.266710251318
344 1 -0.024215625 -0.00125 -0.014765625 0.228358077976
345 1 -0.024215625 -0.00125 -0.013584375 0.171739175823
346 1 -0.024215625 -0.00125 -0.012403125 0.118895884964
347 1 -0.024215625 -0.00125 -0.011221875 0.165991132285
348 1 -0.024215625 -0.00125 -0.010040625 0.151031247578
349 1 -0.024215625 -0.00125 -0.008859375 0.148615216432
350 1 -0.024215625 -0.00125 -0.007678125 0.151768702807
351 1 -0.024215625 -0.00125 -0.006496875 0.176725774223
352 1 -0.024215625 -0.00125 -0.005315625 0.152744439396
353 1 -0.024215625 -0.00125 -0.004134375 0.171447134433
354 1 -0.024215625 -0.00125 -0.002953125 0.165903158981
355 1 -0.024215625 -0.00125 -0.001771875 0.192844094844
356 1 -0.024215625 -0.00125 -0.000590625 0.109837381105
357 1 -0.024215625 -0.00125 0.000590625 0.131340644174
358 1 -0.024215625 -0.00125 0.001771875 0.135528884627
359 1 -0.024215625 -0.00125 0.002953125 0.143180383292
360 1 -0.024215625 -0.00125 0.004134375 0.246051499324
361 1 -0.024215625 -0.00125 0.005315625 0.27202725309
362 1 -0.024215625 -0.00125 0.006496875 0.261650089591
363 1 -0.024215625 -0.00125 0.007678125 0.24644647977
364 1 -0.024215625 -0.00125 0.008859375 0.193831127778
365 1 -0.024215625 -0.00125 0.010040625 0.171357438739
366 1 -0.024215625 -0.00125 0.011221875 0.126719460607
367 1 -0.024215625 -0.00125 0.012403125 0.173534049482
368 1 -0.024215625 -0.00125 0.013584375 0.140474107536
369 1 -0.024215625 -0.00125 0.014765625 0.0762562051106
370 1 -0.024215625 -0.00125 0.015946875 0.0373645855992
371 1 -0.024215625 -0.00125 0.017128125 0.0171411326028
372 1 -0.024215625 -0.00125 0.018309375 0.00545114925448
373 1 -0.024215625 -0.00125 0.019490625 0.000138415459235
374 1 -0.024215625 -0.00125 0.020671875 0.000121317428166
375 1 -0.024215625 -0.00125 0.021853125 3.80924091656e-05
376 1 -0.024215625 -0.00125 0.023034375 5.70856568664e-07
377 1 -0.024215625 -0.00125 0.024215625 4.53469678874e-10
378 1 -0.024215625 -0.00125 0.025396875 5.14916676367e-09
379 1 -0.024215625 -0.00125 0.026578125 4.82488417364e-11
380 1 -0.024215625 -0.00125 0.027759375 5.44069905592e-16
381 1 -0.023034375 -0.00125 -0.027759375 0.00808820177119
382 1 -0.023034375 -0.00125 -0.026578125 0.0259060740174
383 1 -0.023034375 -0.00125 -0.025396875 0.0926175302028
384 1 -0.023034375 -0.00125 -0.024215625 0.0992082232319
385 1 -0.023034375 -0.00125 -0.023034375 0.104664635838
386 1 -0.023034375 -0.00125 -0.021853125 0.132634935418
387 1 -0.023034375 -0.00125 -0.020671875 0.180434756693
388 1 -0.023034375 -0.00125 -0.019490625 0.276398571627
389 1 -0.023034375 -0.00125 -0.018309375 0.285782297497
390 1 -0.023034375 -0.00125 -0.017128125 0.29713216237
391 1 -0.023034375 -0.00125 -0.015946875 0.316342292472
392 1 -0.023034375 -0.00125 -0.014765625 0.293335841802
393 1 -0.023034375 -0.00125 -0.013584375 0.239702132886
394 1 -0.023034375 -0.00125 -0.012403125 0.192460738452
395 1 -0.023034375 -0.00125 -0.011221875 0.196716823588
396 1 -0.023034375 -0.00125 -0.010040625 0.196455304759
397 1 -0.023034375 -0.00125 -0.008859375 0.225166284477
398 1 -0.023034375 -0.00125 -0.007678125 0.152593412077
399 1 -0.023034375 -0.00125 -0.006496875 0.134196332263
400 1 -0.023034375 -0.00125 -0.005315625 0.173817044997
401 1 -0.023034375 -0.00125 -0.004134375 0.156331618932
402 1 -0.023034375 -0.00125 -0.002953125 0.178346536778
403 1 -0.023034375 -0.00125 -0.001771875 0.125647225834
404 1 -0.023034375 -0.00125 -0.000590625 0.129082383345
405 1 -0.023034375 -0.00125 0.000590625 0.197194945126
406 1 -0.023034375 -0.00125 0.001771875 0.190523848742
407 1 -0.023034375 -0.00125 0.002953125 0.245849244418
408 1 -0.023034375 -0.00125 0.004134375 0.263263494361
409 1 -0.023034375 -0.00125 0.005315625 0.295433707617
410 1 -0.023034375 -0.00125 0.006496875 0.26896003494
411 1 -0.023034375 -0.00125 0.007678125 0.25276574249
412 1 -0.023034375 -0.00125 0.008859375 0.270359092442
413 1 -0.023034375 -0.00125 0.010040625 0.207569876181
414 1 -0.023034375 -0.00125 0.011221875 0.163502472938
415 1 -0.023034375 -0.00125 0.012403125 0.17850131153
416 1 -0.023034375 -0.00125 0.013584375 0.130377355429
417 1 -0.023034375 -0.00125 0.014765625 0.116096315262
418 1 -0.023034375 -0.00125 0.015946875 0.073680530606
419 1 -0.023034375 -0.00125 0.017128125 0.0262027896274
420 1 -0.023034375 -0.00125 0.018309375 0.0181020259844
421 1 -0.023034375 -0.00125 0.019490625 0.00671205165471
422 1 -0.023034375 -0.00125 0.020671875 0.00305990582168
423 1 -0.023034375 -0.00125 0.021853125 0.000389634692729
424 1 -0.023034375 -0.00125 0.023034375 5.87253036557e-07
425 1 -0.023034375 -0.00125 0.024215625 2.71659981348e-06
426 1 -0.023034375 -0.00125 0.025396875 1.29673865328e-06
427 1 -0.023034375 -0.00125 0.026578125 1.61195934223e-07
428 1 -0.023034375 -0.00125 0.027759375 0.000343370727948
429 1 -0.021853125 -0.00125 -0.028940625 0.093934912728
430 1 -0.021853125 -0.00125 -0.027759375 0.144118479056
431 1 -0.021853125 -0.00125 -0.026578125 0.103552542738
432 1 -0.021853125 -0.00125 -0.025396875 0.147295172934
433 1 -0.021853125 -0.00125 -0.024215625 0.198757329906
434 1 -0.021853125 -0.00125 -0.023034375 0.155212918983
435 1 -0.021853125 -0.00125 -0.021853125 0.16117332459
436 1 -0.021853125 -0.00125 -0.020671875 0.256063936964
437 1 -0.021853125 -0.00125 -0.019490625 0.294281694847
438 1 -0.021853125 -0.00125 -0.018309375 0.363251051161
439 1 -0.021853125 -0.00125 -0.017128125 0.372564130794
440 1 -0.021853125 -0.00125 -0.015946875 0.39699825865
441 1 -0.021853125 -0.00125 -0.014765625 0.380094376607
442 1 -0.021853125 -0.00125 -0.013584375 0.292183051957
443 1 -0.021853125 -0.00125 -0.012403125 0.182944651332
444 1 -0.021853125 -0.00125 -0.011221875 0.190666818482
445 1 -0.021853125 -0.00125 -0.010040625 0.255248288837
446 1 -0.021853125 -0.00125 -0.008859375 0.198492123048
447 1 -0.021853125 -0.00125 -0.007678125 0.186467217392
448 1 -0.021853125 -0.00125 -0.006496875 0.145580387396
449 1 -0.021853125 -0.00125 -0.005315625 0.150694901037
450 1 -0.021853125 -0.00125 -0.004134375 0.20225546153
451 1 -0.021853125 -0.00125 -0.002953125 0.185182450907
452 1 -0.021853125 -0.00125 -0.001771875 0.138985745435
453 1 -0.021853125 -0.00125 -0.000590625 0.152708223225
454 1 -0.021853125 -0.00125 0.000590625 0.145961949063
455 1 -0.021853125 -0.00125 0.001771875 0.217481644475
456 1 -0.021853125 -0.00125 0.002953125 0.264177316284
457 1 -0.021853125 -0.00125 0.004134375 0.271444960602
458 1 -0.021853125 -0.00125 0.005315625 0.273106804567
459 1 -0.021853125 -0.00125 0.006496875 0.252875924507
460 1 -0.021853125 -0.00125 0.007678125 0.2557187922
461 1 -0.021853125 -0.00125 0.008859375 0.277226945618
462 1 -0.021853125 -0.00125 0.010040625 0.24642799776
463 1 -0.021853125 -0.00125 0.011221875 0.164818769071
464 1 -0.021853125 -0.00125 0.012403125 0.150677353454
465 1 -0.021853125 -0.00125 0.013584375 0.179816516445
466 1 -0.021853125 -0.00125 0.014765625 0.131325201997
467 1 -0.021853125 -0.00125 0.015946875 0.100632952348
468 1 -0.021853125 -0.00125 0.017128125 0.0529089450232
469 1 -0.021853125 -0.00125 0.018309375 0.0255720112979
470 1 -0.021853125 -0.00125 0.019490625 0.0276097414618
471 1 -0.021853125 -0.00125 0.020671875 0.00454059896964
472 1 -0.021853125 -0.00125 0.021853125 0.000825724213765
473 1 -0.021853125 -0.00125 0.023034375 0.000258995926211
474 1 -0.021853125 -0.00125 0.024215625 0.000271610764416
475 1 -0.021853125 -0.00125 0.025396875 0.000101016709767
476 1 -0.021853125 -0.00125 0.026578125 0.00171587411604
477 1 -0.021853125 -0.00125 0.027759375 0.0117667589397
478 1 -0.021853125 -0.00125 0.028940625 0.00170705315265
479 1 -0.020671875 -0.00125 -0.030121875 0.0219853786095
480 1 -0.020671875 -0.00125 -0.028940625 0.0433628907707
481 1 -0.020671875 -0.00125 -0.027759375 0.113465918111
482 1 -0.020671875 -0.00125 -0.026578125 0.143691643375
483 1 -0.020671875 -0.00125 -0.025396875 0.179541831368
484 1 -0.020671875 -0.00125 -0.024215625 0.192236375251
485 1 -0.020671875 -0.00125 -0.023034375 0.207673217955
486 1 -0.020671875 -0.00125 -0.021853125 0.21846814204
487 1 -0.020671875 -0.00125 -0.020671875 0.265732624656
488 1 -0.020671875 -0.00125 -0.019490625 0.317892455363
489 1 -0.020671875 -0.00125 -0.018309375 0.376991784243
490 1 -0.020671875 -0.00125 -0.017128125 0.401803873984
491 1 -0.020671875 -0.00125 -0.015946875 0.439577384418
492 1 -0.020671875 -0.00125 -0.014765625 0.438834463796
493 1 -0.020671875 -0.00125 -0.013584375 0.342606465079
494 1 -0.020671875 -0.00125 -0.012403125 0.3082790567
495 1 -0.020671875 -0.00125 -0.011221875 0.282696189788
496 1 -0.020671875 -0.00125 -0.010040625 0.37793619761
497 1 -0.020671875 -0.00125 -0.008859375 0.22501113558
498 1 -0.020671875 -0.00125 -0.007678125 0.157809002076
499 1 -0.020671875 -0.00125 -0.006496875 0.127686558618
500 1 -0.020671875 -0.00125 -0.005315625 0.187959568785
501 1 -0.020671875 -0.00125 -0.004134375 0.184424932751
502 1 -0.020671875 -0.00125 -0.002953125 0.217519834223
503 1 -0.020671875 -0.00125 -0.001771875 0.161976948541
504 1 -0.020671875 -0.00125 -0.000590625 0.204719640757
505 1 -0.020671875 -0.00125 0.000590625 0.158642824493
506 1 -0.020671875 -0.00125 0.001771875 0.267367067188
507 1 -0.020671875 -0.00125 0.002953125 0.323629897149
508 1 -0.020671875 -0.00125 0.004134375 0.278219050263
509 1 -0.020671875 -0.00125 0.005315625 0.326388628123
510 1 -0.020671875 -0.00125 0.006496875 0.294446760499
511 1 -0.020671875 -0.00125 0.007678125 0.24401449718
512 1 -0.020671875 -0.00125 0.008859375 0.271935033819
513 1 -0.020671875 -0.00125 0.010040625 0.208337721645
514 1 -0.020671875 -0.00125 0.011221875 0.192007697235
515 1 -0.020671875 -0.00125 0.012403125 0.13119618631
516 1 -0.020671875 -0.00125 0.013584375 0.136749925993
517 1 -0.020671875 -0.00125 0.014765625 0.109545985137
518 1 -0.020671875 -0.00125 0.015946875 0.0914417053858
519 1 -0.020671875 -0.00125 0.017128125 0.0581685974686
520 1 -0.020671875 -0.00125 0.018309375 0.0466992891639
521 1 -0.020671875 -0.00125 0.019490625 0.0326412947415
522 1 -0.020671875 -0.00125 0.020671875 0.00438166281837
523 1 -0.020671875 -0.00125 0.021853125 9.31095668462e-06
524 1 -0.020671875 -0.00125 0.023034375 9.032725046e-05
525 1 -0.020671875 -0.00125 0.024215625 4.40615572407e-05
526 1 -0.020671875 -0.00125 0.025396875 1.76440354579e-07
527 1 -0.020671875 -0.00125 0.026578125 2.1276972832e-05
528 1 -0.020671875 -0.00125 0.027759375 9.81267430971e-05