ITEM: TIMESTEP
0
ITEM: NUMBER OF ATOMS
3080
ITEM: BOX BOUNDS ss ss ss
-3.7007399999999996e-02 3.7007399999999996e-02
-2.0002499999999999e-03 2.5000000000000004e-07
-3.7007399999999996e-02 3.7007399999999996e-02
ITEM: ATOMS id type x y z c_1
0 1 -0.037209375 -0.00125 -0.000590625 1.0
1 1 -0.036028125 -0.00125 -0.007678125 2.08687050261e-35
2 1 -0.036028125 -0.00125 -0.006496875 1.04070551396e-109
3 1 -0.036028125 -0.00125 -0.005315625 4.30222071791e-251
4 1 -0.036028125 -0.00125 -0.004134375 5.34161533521e-118
5 1 -0.036028125 -0.00125 -0.002953125 1.39073265111e-20
6 1 -0.036028125 -0.00125 -0.001771875 2.3749007452e-13
7 1 -0.036028125 -0.00125 -0.000590625 1.67405096165e-26
8 1 -0.036028125 -0.00125 0.000590625 3.93484018898e-307
9 1 -0.036028125 -0.00125 0.001771875 4.3572849073e-142
10 1 -0.036028125 -0.00125 0.002953125 0.0
11 1 -0.036028125 -0.00125 0.004134375 0.0
12 1 -0.036028125 -0.00125 0.005315625 0.0
13 1 -0.036028125 -0.00125 0.006496875 1.35162672219e-193
14 1 -0.036028125 -0.00125 0.007678125 4.87563901758e-144
15 1 -0.034846875 -0.00125 -0.011221875 6.58525201089e-12
16 1 -0.034846875 -0.00125 -0.010040625 3.78001999411e-18
17 1 -0.034846875 -0.00125 -0.008859375 9.09339152735e-15
18 1 -0.034846875 -0.00125 -0.007678125 5.82346464753e-122
19 1 -0.034846875 -0.00125 -0.006496875 4.01437984429e-75
20 1 -0.034846875 -0.00125 -0.005315625 0.0
21 1 -0.034846875 -0.00125 -0.004134375 2.45248925284e-291
22 1 -0.034846875 -0.00125 -0.002953125 4.71915090567e-33
23 1 -0.034846875 -0.00125 -0.001771875 3.33790847178e-46
24 1 -0.034846875 -0.00125 -0.000590625 1.15253699969e-56
25 1 -0.034846875 -0.00125 0.000590625 0.0
26 1 -0.034846875 -0.00125 0.001771875 0.0
27 1 -0.034846875 -0.00125 0.002953125 0.0
28 1 -0.034846875 -0.00125 0.004134375 0.0
29 1 -0.034846875 -0.00125 0.005315625 0.0
30 1 -0.034846875 -0.00125 0.006496875 0.0
31 1 -0.034846875 -0.00125 0.007678125 0.0
32 1 -0.034846875 -0.00125 0.008859375 1.22195037308e-66
33 1 -0.034846875 -0.00125 0.010040625 1.67672852131e-133
34 1 -0.034846875 -0.00125 0.011221875 6.73834724901e-189
35 1 -0.033665625 -0.00125 -0.013584375 4.84711770877e-17
36 1 -0.033665625 -0.00125 -0.012403125 1.65383862968e-12
37 1 -0.033665625 -0.00125 -0.011221875 1.21860342709e-18
38 1 -0.033665625 -0.00125 -0.010040625 4.95929450304e-17
39 1 -0.033665625 -0.00125 -0.008859375 1.4553215643e-22
40 1 -0.033665625 -0.00125 -0.007678125 1.40067526283e-30
41 1 -0.033665625 -0.00125 -0.006496875 1.76970765784e-66
42 1 -0.033665625 -0.00125 -0.005315625 1.38359868828e-265
43 1 -0.033665625 -0.00125 -0.004134375 4.740082322e-109
44 1 -0.033665625 -0.00125 -0.002953125 2.60921854244e-88
45 1 -0.033665625 -0.00125 -0.001771875 3.9517098663e-58
46 1 -0.033665625 -0.00125 -0.000590625 2.03805715529e-44
47 1 -0.033665625 -0.00125 0.000590625 1.55132808031e-197
48 1 -0.033665625 -0.00125 0.001771875 0.0
49 1 -0.033665625 -0.00125 0.002953125 0.0
50 1 -0.033665625 -0.00125 0.004134375 0.0
51 1 -0.033665625 -0.00125 0.005315625 0.0
52 1 -0.033665625 -0.00125 0.006496875 0.0
53 1 -0.033665625 -0.00125 0.007678125 2.99130344293e-213
54 1 -0.033665625 -0.00125 0.008859375 8.66572921223e-65
55 1 -0.033665625 -0.00125 0.010040625 1.02715774195e-94
56 1 -0.033665625 -0.00125 0.011221875 2.57932563212e-138
57 1 -0.033665625 -0.00125 0.012403125 8.07104985987e-122
58 1 -0.033665625 -0.00125 0.013584375 0.0
59 1 -0.032484375 -0.00125 -0.018309375 3.99789689105e-13
60 1 -0.032484375 -0.00125 -0.017128125 3.93819120597e-15
61 1 -0.032484375 -0.00125 -0.015946875 2.47091713996e-09
62 1 -0.032484375 -0.00125 -0.014765625 2.45800250142e-15
63 1 -0.032484375 -0.00125 -0.013584375 3.12891040936e-19
64 1 -0.032484375 -0.00125 -0.012403125 8.65243361366e-15
65 1 -0.032484375 -0.00125 -0.011221875 4.62452419849e-13
66 1 -0.032484375 -0.00125 -0.010040625 2.57224801204e-20
67 1 -0.032484375 -0.00125 -0.008859375 1.59714702944e-14
68 1 -0.032484375 -0.00125 -0.007678125 1.66569328667e-10
69 1 -0.032484375 -0.00125 -0.006496875 8.80879117087e-29
70 1 -0.032484375 -0.00125 -0.005315625 3.71803880686e-27
71 1 -0.032484375 -0.00125 -0.004134375 5.14129352757e-46
72 1 -0.032484375 -0.00125 -0.002953125 3.60399505381e-45
73 1 -0.032484375 -0.00125 -0.001771875 9.35341408277e-33
74 1 -0.032484375 -0.00125 -0.000590625 2.94504153371e-35
75 1 -0.032484375 -0.00125 0.000590625 7.14900621531e-80
76 1 -0.032484375 -0.00125 0.001771875 1.89053057256e-26
77 1 -0.032484375 -0.00125 0.002953125 2.51736691292e-136
78 1 -0.032484375 -0.00125 0.004134375 1.81263170461e-109
79 1 -0.032484375 -0.00125 0.005315625 0.0
80 1 -0.032484375 -0.00125 0.006496875 8.91154988652e-121
81 1 -0.032484375 -0.00125 0.007678125 8.53034712655e-89
82 1 -0.032484375 -0.00125 0.008859375 9.42272208707e-65
83 1 -0.032484375 -0.00125 0.010040625 7.63938133138e-72
84 1 -0.032484375 -0.00125 0.011221875 1.81608338911e-115
85 1 -0.032484375 -0.00125 0.012403125 0.0
86 1 -0.032484375 -0.00125 0.013584375 0.0
87 1 -0.032484375 -0.00125 0.014765625 0.0
88 1 -0.032484375 -0.00125 0.015946875 0.0
89 1 -0.032484375 -0.00125 0.017128125 0.0
90 1 -0.032484375 -0.00125 0.018309375 0.0
91 1 -0.031303125 -0.00125 -0.019490625 3.1072648509e-28
92 1 -0.031303125 -0.00125 -0.018309375 5.37392856965e-14
93 1 -0.031303125 -0.00125 -0.017128125 7.64872510838e-09
94 1 -0.031303125 -0.00125 -0.015946875 1.19786109349e-13
95 1 -0.031303125 -0.00125 -0.014765625 5.38185794153e-20
96 1 -0.031303125 -0.00125 -0.013584375 3.69395838639e-28
97 1 -0.031303125 -0.00125 -0.012403125 5.69612757759e-19
98 1 -0.031303125 -0.00125 -0.011221875 9.61279751463e-17
99 1 -0.031303125 -0.00125 -0.010040625 2.65521549591e-17
100 1 -0.031303125 -0.00125 -0.008859375 2.01011273035e-21
101 1 -0.031303125 -0.00125 -0.007678125 6.73701860557e-12
102 1 -0.031303125 -0.00125 -0.006496875 2.04516405063e-11
103 1 -0.031303125 -0.00125 -0.005315625 7.98965099237e-14
104 1 -0.031303125 -0.00125 -0.004134375 1.94131241514e-18
105 1 -0.031303125 -0.00125 -0.002953125 2.00516005573e-07
106 1 -0.031303125 -0.00125 -0.001771875 1.58255411192e-08
107 1 -0.031303125 -0.00125 -0.000590625 4.90737196467e-19
108 1 -0.031303125 -0.00125 0.000590625 6.8358487111e-21
109 1 -0.031303125 -0.00125 0.001771875 2.36204347106e-15
110 1 -0.031303125 -0.00125 0.002953125 1.48531602192e-21
111 1 -0.031303125 -0.00125 0.004134375 1.22421909841e-21
112 1 -0.031303125 -0.00125 0.005315625 2.75470610026e-24
113 1 -0.031303125 -0.00125 0.006496875 1.4743985433e-24
114 1 -0.031303125 -0.00125 0.007678125 6.94518287342e-34
115 1 -0.031303125 -0.00125 0.008859375 2.08539917661e-91
116 1 -0.031303125 -0.00125 0.010040625 2.25862754258e-91
117 1 -0.031303125 -0.00125 0.011221875 3.41860978754e-109
118 1 -0.031303125 -0.00125 0.012403125 2.67887503707e-150
119 1 -0.031303125 -0.00125 0.013584375 0.0
120 1 -0.031303125 -0.00125 0.014765625 0.0
121 1 -0.031303125 -0.00125 0.015946875 0.0
122 1 -0.031303125 -0.00125 0.017128125 0.0
123 1 -0.031303125 -0.00125 0.018309375 0.0
124 1 -0.031303125 -0.00125 0.019490625 0.0
125 1 -0.030121875 -0.00125 -0.020671875 4.7349369495e-36
126 1 -0.030121875 -0.00125 -0.019490625 8.50923966299e-19
127 1 -0.030121875 -0.00125 -0.018309375 2.65508330629e-22
128 1 -0.030121875 -0.00125 -0.017128125 5.35280694006e-13
129 1 -0.030121875 -0.00125 -0.015946875 6.212398431e-22
130 1 -0.030121875 -0.00125 -0.014765625 5.18861933103e-27
131 1 -0.030121875 -0.00125 -0.013584375 1.74985523543e-38
132 1 -0.030121875 -0.00125 -0.012403125 2.97933951318e-13
133 1 -0.030121875 -0.00125 -0.011221875 8.09466477192e-10
134 1 -0.030121875 -0.00125 -0.010040625 1.93436101481e-13
135 1 -0.030121875 -0.00125 -0.008859375 3.9209489268e-20
136 1 -0.030121875 -0.00125 -0.007678125 3.72703537104e-12
137 1 -0.030121875 -0.00125 -0.006496875 2.68786315346e-14
138 1 -0.030121875 -0.00125 -0.005315625 4.20853123115e-07
139 1 -0.030121875 -0.00125 -0.004134375 2.3989770227e-09
140 1 -0.030121875 -0.00125 -0.002953125 0.000112876285731
141 1 -0.030121875 -0.00125 -0.001771875 8.70304949802e-06
142 1 -0.030121875 -0.00125 -0.000590625 3.99317801828e-15
143 1 -0.030121875 -0.00125 0.000590625 2.15991800222e-13
144 1 -0.030121875 -0.00125 0.001771875 1.21308415336e-10
145 1 -0.030121875 -0.00125 0.002953125 3.85003793112e-12
146 1 -0.030121875 -0.00125 0.004134375 2.01090608298e-10
147 1 -0.030121875 -0.00125 0.005315625 4.02291252504e-20
148 1 -0.030121875 -0.00125 0.006496875 1.03316182205e-25
149 1 -0.030121875 -0.00125 0.007678125 1.7596334821e-53
150 1 -0.030121875 -0.00125 0.008859375 4.64072197275e-85
151 1 -0.030121875 -0.00125 0.010040625 1.54240206421e-43
152 1 -0.030121875 -0.00125 0.011221875 3.11257562616e-146
153 1 -0.030121875 -0.00125 0.012403125 1.67778040088e-139
154 1 -0.030121875 -0.00125 0.013584375 1.20591576743e-228
155 1 -0.030121875 -0.00125 0.014765625 0.0
156 1 -0.030121875 -0.00125 0.015946875 0.0
157 1 -0.030121875 -0.00125 0.017128125 0.0
158 1 -0.030121875 -0.00125 0.018309375 0.0
159 1 -0.030121875 -0.00125 0.019490625 0.0
160 1 -0.030121875 -0.00125 0.020671875 0.0
161 1 -0.028940625 -0.00125 -0.021853125 0.000171384983842
162 1 -0.028940625 -0.00125 -0.020671875 2.83506861437e-09
163 1 -0.028940625 -0.00125 -0.019490625 4.36730061587e-13
164 1 -0.028940625 -0.00125 -0.018309375 1.06192432879e-27
165 1 -0.028940625 -0.00125 -0.017128125 1.71319963776e-34
166 1 -0.028940625 -0.00125 -0.015946875 1.46264967467e-22
167 1 -0.028940625 -0.00125 -0.014765625 7.0216074119e-22
168 1 -0.028940625 -0.00125 -0.013584375 2.52682536663e-27
169 1 -0.028940625 -0.00125 -0.012403125 4.68495995793e-22
170 1 -0.028940625 -0.00125 -0.011221875 5.09555667385e-17
171 1 -0.028940625 -0.00125 -0.010040625 1.76914606464e-10
172 1 -0.028940625 -0.00125 -0.008859375 3.87102657438e-09
173 1 -0.028940625 -0.00125 -0.007678125 1.76442868854e-08
174 1 -0.028940625 -0.00125 -0.006496875 1.65637886459e-05
175 1 -0.028940625 -0.00125 -0.005315625 0.000513135785395
176 1 -0.028940625 -0.00125 -0.004134375 0.000936522573608
177 1 -0.028940625 -0.00125 -0.002953125 0.000475940553141
178 1 -0.028940625 -0.00125 -0.001771875 7.74240504208e-05
179 1 -0.028940625 -0.00125 -0.000590625 4.55948220683e-07
180 1 -0.028940625 -0.00125 0.000590625 2.29421486071e-06
181 1 -0.028940625 -0.00125 0.001771875 8.88613457739e-07
182 1 -0.028940625 -0.00125 0.002953125 2.11593854423e-06
183 1 -0.028940625 -0.00125 0.004134375 1.32450051501e-22
184 1 -0.028940625 -0.00125 0.005315625 5.86651662263e-28
185 1 -0.028940625 -0.00125 0.006496875 6.73786345205e-42
186 1 -0.028940625 -0.00125 0.007678125 5.03213917059e-77
187 1 -0.028940625 -0.00125 0.008859375 6.67531803414e-54
188 1 -0.028940625 -0.00125 0.010040625 2.33217898334e-79
189 1 -0.028940625 -0.00125 0.011221875 4.98478223964e-110
190 1 -0.028940625 -0.00125 0.012403125 6.66706891725e-158
191 1 -0.028940625 -0.00125 0.013584375 2.89927546593e-129
192 1 -0.028940625 -0.00125 0.014765625 0.0
193 1 -0.028940625 -0.00125 0.015946875 0.0
194 1 -0.028940625 -0.00125 0.017128125 0.0
195 1 -0.028940625 -0.00125 0.018309375 0.0
196 1 -0.028940625 -0.00125 0.019490625 0.0
197 1 -0.028940625 -0.00125 0.020671875 0.0
198 1 -0.028940625 -0.00125 0.021853125 0.0
199 1 -0.027759375 -0.00125 -0.024215625 2.83971749648e-10
200 1 -0.027759375 -0.00125 -0.023034375 4.88488354007e-06
201 1 -0.027759375 -0.00125 -0.021853125 0.0339050585159
202 1 -0.027759375 -0.00125 -0.020671875 1.24673952916e-05
203 1 -0.027759375 -0.00125 -0.019490625 3.74401142974e-09
204 1 -0.027759375 -0.00125 -0.018309375 4.46294775299e-13
205 1 -0.027759375 -0.00125 -0.017128125 2.71448510951e-25
206 1 -0.027759375 -0.00125 -0.015946875 2.15556077131e-43
207 1 -0.027759375 -0.00125 -0.014765625 8.60357687434e-39
208 1 -0.027759375 -0.00125 -0.013584375 1.02929139219e-23
209 1 -0.027759375 -0.00125 -0.012403125 2.38933594263e-08
210 1 -0.027759375 -0.00125 -0.011221875 1.45527681414e-09
211 1 -0.027759375 -0.00125 -0.010040625 3.78102699858e-06
212 1 -0.027759375 -0.00125 -0.008859375 5.53013822242e-06
213 1 -0.027759375 -0.00125 -0.007678125 2.53943370966e-07
214 1 -0.027759375 -0.00125 -0.006496875 0.000121537632092
215 1 -0.027759375 -0.00125 -0.005315625 0.00390678067569
216 1 -0.027759375 -0.00125 -0.004134375 0.00983706465585
217 1 -0.027759375 -0.00125 -0.002953125 0.0238439256376
218 1 -0.027759375 -0.00125 -0.001771875 5.63353013268e-05
219 1 -0.027759375 -0.00125 -0.000590625 0.000114759997999
220 1 -0.027759375 -0.00125 0.000590625 0.000164345227094
221 1 -0.027759375 -0.00125 0.001771875 0.000179276665054
222 1 -0.027759375 -0.00125 0.002953125 0.000231367604525
223 1 -0.027759375 -0.00125 0.004134375 3.34072638907e-07
224 1 -0.027759375 -0.00125 0.005315625 8.58528734785e-20
225 1 -0.027759375 -0.00125 0.006496875 5.77745680897e-29
226 1 -0.027759375 -0.00125 0.007678125 1.01826599191e-29
227 1 -0.027759375 -0.00125 0.008859375 2.18223792155e-23
228 1 -0.027759375 -0.00125 0.010040625 7.34133205149e-17
229 1 -0.027759375 -0.00125 0.011221875 3.37104428065e-39
230 1 -0.027759375 -0.00125 0.012403125 7.70636259244e-58
231 1 -0.027759375 -0.00125 0.013584375 1.05167533379e-77
232 1 -0.027759375 -0.00125 0.014765625 5.50436292376e-106
233 1 -0.027759375 -0.00125 0.015946875 2.41482144731e-76
234 1 -0.027759375 -0.00125 0.017128125 1.62945513106e-248
235 1 -0.027759375 -0.00125 0.018309375 3.3215151497e-187
236 1 -0.027759375 -0.00125 0.019490625 0.0
237 1 -0.027759375 -0.00125 0.020671875 0.0
238 1 -0.027759375 -0.00125 0.021853125 0.0
239 1 -0.027759375 -0.00125 0.023034375 0.0
240 1 -0.027759375 -0.00125 0.024215625 0.0
241 1 -0.026578125 -0.00125 -0.026578125 0.000458936709859
242 1 -0.026578125 -0.00125 -0.025396875 0.000171287650238
243 1 -0.026578125 -0.00125 -0.024215625 5.6765036476e-07
244 1 -0.026578125 -0.00125 -0.023034375 0.00079105106798
245 1 -0.026578125 -0.00125 -0.021853125 0.00453827560641
246 1 -0.026578125 -0.00125 -0.020671875 9.39839778531e-06
247 1 -0.026578125 -0.00125 -0.019490625 6.50971436502e-06
248 1 -0.026578125 -0.00125 -0.018309375 9.64653815613e-10
249 1 -0.026578125 -0.00125 -0.017128125 1.04085753525e-24
250 1 -0.026578125 -0.00125 -0.015946875 1.95681501624e-41
251 1 -0.026578125 -0.00125 -0.014765625 6.70415469356e-22
252 1 -0.026578125 -0.00125 -0.013584375 2.0078954244e-10
253 1 -0.026578125 -0.00125 -0.012403125 1.12780866488e-05
254 1 -0.026578125 -0.00125 -0.011221875 0.000220317289891
255 1 -0.026578125 -0.00125 -0.010040625 0.000517410873556
256 1 -0.026578125 -0.00125 -0.008859375 0.000265836646917
257 1 -0.026578125 -0.00125 -0.007678125 0.00172129317521
258 1 -0.026578125 -0.00125 -0.006496875 0.00943194862804
259 1 -0.026578125 -0.00125 -0.005315625 0.0045265712397
260 1 -0.026578125 -0.00125 -0.004134375 0.00327171553386
261 1 -0.026578125 -0.00125 -0.002953125 0.00120133740836
262 1 -0.026578125 -0.00125 -0.001771875 0.00168879405594
263 1 -0.026578125 -0.00125 -0.000590625 0.000221654049539
264 1 -0.026578125 -0.00125 0.000590625 0.00337004651185
265 1 -0.026578125 -0.00125 0.001771875 0.00255342558608
266 1 -0.026578125 -0.00125 0.002953125 0.000543555369679
267 1 -0.026578125 -0.00125 0.004134375 7.59912931505e-06
268 1 -0.026578125 -0.00125 0.005315625 2.29281787409e-06
269 1 -0.026578125 -0.00125 0.006496875 4.52450009091e-08
270 1 -0.026578125 -0.00125 0.007678125 1.02329125062e-07
271 1 -0.026578125 -0.00125 0.008859375 1.15438350948e-14
272 1 -0.026578125 -0.00125 0.010040625 5.3598756302e-11
273 1 -0.026578125 -0.00125 0.011221875 9.18577165778e-09
274 1 -0.026578125 -0.00125 0.012403125 1.97653083864e-16
275 1 -0.026578125 -0.00125 0.013584375 1.55891507112e-31
276 1 -0.026578125 -0.00125 0.014765625 4.20981586591e-29
277 1 -0.026578125 -0.00125 0.015946875 7.30548546591e-46
278 1 -0.026578125 -0.00125 0.017128125 2.56368690552e-67
279 1 -0.026578125 -0.00125 0.018309375 2.50352863496e-76
280 1 -0.026578125 -0.00125 0.019490625 0.0
281 1 -0.026578125 -0.00125 0.020671875 0.0
282 1 -0.026578125 -0.00125 0.021853125 0.0
283 1 -0.026578125 -0.00125 0.023034375 0.0
284 1 -0.026578125 -0.00125 0.024215625 0.0
285 1 -0.026578125 -0.00125 0.025396875 0.0
286 1 -0.026578125 -0.00125 0.026578125 0.0
287 1 -0.025396875 -0.00125 -0.026578125 0.00289061605995
288 1 -0.025396875 -0.00125 -0.025396875 9.70554676784e-06
289 1 -0.025396875 -0.00125 -0.024215625 3.75954553659e-06
290 1 -0.025396875 -0.00125 -0.023034375 0.000803426693078
291 1 -0.025396875 -0.00125 -0.021853125 9.97439357663e-06
292 1 -0.025396875 -0.00125 -0.020671875 4.66062290806e-05
293 1 -0.025396875 -0.00125 -0.019490625 5.52904252408e-07
294 1 -0.025396875 -0.00125 -0.018309375 8.91146310987e-14
295 1 -0.025396875 -0.00125 -0.017128125 1.37584890749e-24
296 1 -0.025396875 -0.00125 -0.015946875 1.32045133128e-15
297 1 -0.025396875 -0.00125 -0.014765625 6.01941470327e-12
298 1 -0.025396875 -0.00125 -0.013584375 5.29439073715e-10
299 1 -0.025396875 -0.00125 -0.012403125 0.00367229463092
300 1 -0.025396875 -0.00125 -0.011221875 0.00348711223856
301 1 -0.025396875 -0.00125 -0.010040625 0.0281039116944
302 1 -0.025396875 -0.00125 -0.008859375 0.00313583591815
303 1 -0.025396875 -0.00125 -0.007678125 0.00202530490255
304 1 -0.025396875 -0.00125 -0.006496875 0.00238299580946
305 1 -0.025396875 -0.00125 -0.005315625 0.00338556509745
306 1 -0.025396875 -0.00125 -0.004134375 0.000787546278432
307 1 -0.025396875 -0.00125 -0.002953125 0.00367408040773
308 1 -0.025396875 -0.00125 -0.001771875 0.00030851131531
309 1 -0.025396875 -0.00125 -0.000590625 0.000256939228283
310 1 -0.025396875 -0.00125 0.000590625 0.00475335040902
311 1 -0.025396875 -0.00125 0.001771875 0.0112133064304
312 1 -0.025396875 -0.00125 0.002953125 0.0016360829669
313 1 -0.025396875 -0.00125 0.004134375 0.00117156679461
314 1 -0.025396875 -0.00125 0.005315625 0.000118299168186
315 1 -0.025396875 -0.00125 0.006496875 7.65011216691e-05
316 1 -0.025396875 -0.00125 0.007678125 3.66451145216e-05
317 1 -0.025396875 -0.00125 0.008859375 2.81174641379e-05
318 1 -0.025396875 -0.00125 0.010040625 0.00111985342897
319 1 -0.025396875 -0.00125 0.011221875 0.00148609972014
320 1 -0.025396875 -0.00125 0.012403125 1.48261855862e-07
321 1 -0.025396875 -0.00125 0.013584375 1.06374790631e-10
322 1 -0.025396875 -0.00125 0.014765625 3.76260919623e-30
323 1 -0.025396875 -0.00125 0.015946875 4.26653677911e-63
324 1 -0.025396875 -0.00125 0.017128125 2.77401060987e-44
325 1 -0.025396875 -0.00125 0.018309375 4.19163530701e-49
326 1 -0.025396875 -0.00125 0.019490625 6.94459345212e-199
327 1 -0.025396875 -0.00125 0.020671875 0.0
328 1 -0.025396875 -0.00125 0.021853125 0.0
329 1 -0.025396875 -0.00125 0.023034375 0.0
330 1 -0.025396875 -0.00125 0.024215625 0.0
331 1 -0.025396875 -0.00125 0.025396875 0.0
332 1 -0.025396875 -0.00125 0.026578125 0.0
333 1 -0.024215625 -0.00125 -0.027759375 0.000132378572753
334 1 -0.024215625 -0.00125 -0.026578125 0.00141029752128
335 1 -0.024215625 -0.00125 -0.025396875 0.000107289963875
336 1 -0.024215625 -0.00125 -0.024215625 1.30332824759e-05
337 1 -0.024215625 -0.00125 -0.023034375 1.46266738197e-07
338 1 -0.024215625 -0.00125 -0.021853125 1.27000782771e-08
339 1 -0.024215625 -0.00125 -0.020671875 2.83525503896e-07
340 1 -0.024215625 -0.00125 -0.019490625 1.55192094219e-08
341 1 -0.024215625 -0.00125 -0.018309375 3.89893664833e-11
342 1 -0.024215625 -0.00125 -0.017128125 2.7439014716e-10
343 1 -0.024215625 -0.00125 -0.015946875 4.7895808906e-07
344 1 -0.024215625 -0.00125 -0.014765625 2.22406421973e-05
345 1 -0.024215625 -0.00125 -0.013584375 0.00188857593548
346 1 -0.024215625 -0.00125 -0.012403125 0.0489418852761
347 1 -0.024215625 -0.00125 -0.011221875 0.0383917940132
348 1 -0.024215625 -0.00125 -0.010040625 0.0574177247238
349 1 -0.024215625 -0.00125 -0.008859375 0.00891466568261
350 1 -0.024215625 -0.00125 -0.007678125 0.0084585590127
351 1 -0.024215625 -0.00125 -0.006496875 0.00384295933299
352 1 -0.024215625 -0.00125 -0.005315625 0.00035004392628
353 1 -0.024215625 -0.00125 -0.004134375 0.00267592009854
354 1 -0.024215625 -0.00125 -0.002953125 0.000448388315074
355 1 -0.024215625 -0.00125 -0.001771875 0.00106811281835
356 1 -0.024215625 -0.00125 -0.000590625 0.00814178994304
357 1 -0.024215625 -0.00125 0.000590625 0.0104203013573
358 1 -0.024215625 -0.00125 0.001771875 0.016900647262
359 1 -0.024215625 -0.00125 0.002953125 0.0285212834174
360 1 -0.024215625 -0.00125 0.004134375 0.0091389023637
361 1 -0.024215625 -0.00125 0.005315625 0.00589885420607
362 1 -0.024215625 -0.00125 0.006496875 0.000505928225198
363 1 -0.024215625 -0.00125 0.007678125 0.00116085937694
364 1 -0.024215625 -0.00125 0.008859375 0.000690448718359
365 1 -0.024215625 -0.00125 0.010040625 0.00032400677692
366 1 -0.024215625 -0.00125 0.011221875 4.36048137291e-05
367 1 -0.024215625 -0.00125 0.012403125 3.11559950757e-05
368 1 -0.024215625 -0.00125 0.013584375 5.73447863542e-10
369 1 -0.024215625 -0.00125 0.014765625 2.21377819227e-16
370 1 -0.024215625 -0.00125 0.015946875 2.42261866285e-31
371 1 -0.024215625 -0.00125 0.017128125 1.85669628616e-36
372 1 -0.024215625 -0.00125 0.018309375 1.2636423276e-36
373 1 -0.024215625 -0.00125 0.019490625 3.0171600351e-178
374 1 -0.024215625 -0.00125 0.020671875 0.0
375 1 -0.024215625 -0.00125 0.021853125 0.0
376 1 -0.024215625 -0.00125 0.023034375 0.0
377 1 -0.024215625 -0.00125 0.024215625 0.0
378 1 -0.024215625 -0.00125 0.025396875 0.0
379 1 -0.024215625 -0.00125 0.026578125 0.0
380 1 -0.024215625 -0.00125 0.027759375 0.0
381 1 -0.023034375 -0.00125 -0.027759375 0.0201980727659
382 1 -0.023034375 -0.00125 -0.026578125 0.039334596884
383 1 -0.023034375 -0.00125 -0.025396875 0.000148218458068
384 1 -0.023034375 -0.00125 -0.024215625 1.53962864637e-07
385 1 -0.023034375 -0.00125 -0.023034375 3.83555064811e-07
386 1 -0.023034375 -0.00125 -0.021853125 1.60182896918e-05
387 1 -0.023034375 -0.00125 -0.020671875 4.32063425655e-07
388 1 -0.023034375 -0.00125 -0.019490625 7.22735419945e-08
389 1 -0.023034375 -0.00125 -0.018309375 3.58615793611e-07
390 1 -0.023034375 -0.00125 -0.017128125 0.000323264223059
391 1 -0.023034375 -0.00125 -0.015946875 0.000549174439903
392 1 -0.023034375 -0.00125 -0.014765625 0.00840871730859
393 1 -0.023034375 -0.00125 -0.013584375 0.0559978226409
394 1 -0.023034375 -0.00125 -0.012403125 0.0678957544882
395 1 -0.023034375 -0.00125 -0.011221875 0.0715862521491
396 1 -0.023034375 -0.00125 -0.010040625 0.056892035486
397 1 -0.023034375 -0.00125 -0.008859375 0.0106029594773
398 1 -0.023034375 -0.00125 -0.007678125 0.0172895770237
399 1 -0.023034375 -0.00125 -0.006496875 0.00428459452845
400 1 -0.023034375 -0.00125 -0.005315625 0.00864740119073
401 1 -0.023034375 -0.00125 -0.004134375 0.00282883615993
402 1 -0.023034375 -0.00125 -0.002953125 0.0106331879032
403 1 -0.023034375 -0.00125 -0.001771875 0.0126481183776
404 1 -0.023034375 -0.00125 -0.000590625 0.0232622988315
405 1 -0.023034375 -0.00125 0.000590625 0.0353780325489
406 1 -0.023034375 -0.00125 0.001771875 0.0427169985403
407 1 -0.023034375 -0.00125 0.002953125 0.02048098953
408 1 -0.023034375 -0.00125 0.004134375 0.00501546637506
409 1 -0.023034375 -0.00125 0.005315625 0.000473332664109
410 1 -0.023034375 -0.00125 0.006496875 0.00279917429051
411 1 -0.023034375 -0.00125 0.007678125 0.00101925181624
412 1 -0.023034375 -0.00125 0.008859375 0.0040596809106
413 1 -0.023034375 -0.00125 0.010040625 0.00237307389341
414 1 -0.023034375 -0.00125 0.011221875 0.00169027991365
415 1 -0.023034375 -0.00125 0.012403125 8.0562592344e-06
416 1 -0.023034375 -0.00125 0.013584375 5.28126746922e-07
417 1 -0.023034375 -0.00125 0.014765625 6.80482441543e-13
418 1 -0.023034375 -0.00125 0.015946875 2.35348783259e-22
419 1 -0.023034375 -0.00125 0.017128125 2.26643085157e-48
420 1 -0.023034375 -0.00125 0.018309375 5.68837639659e-40
421 1 -0.023034375 -0.00125 0.019490625 8.87292497005e-92
422 1 -0.023034375 -0.00125 0.020671875 0.0
423 1 -0.023034375 -0.00125 0.021853125 0.0
424 1 -0.023034375 -0.00125 0.023034375 0.0
425 1 -0.023034375 -0.00125 0.024215625 0.0
426 1 -0.023034375 -0.00125 0.025396875 0.0
427 1 -0.023034375 -0.00125 0.026578125 0.0
428 1 -0.023034375 -0.00125 0.027759375 0.0
429 1 -0.021853125 -0.00125 -0.028940625 0.0449107429102
430 1 -0.021853125 -0.00125 -0.027759375 0.152185584377
431 1 -0.021853125 -0.00125 -0.026578125 0.0664879953141
432 1 -0.021853125 -0.00125 -0.025396875 0.00279642169549
433 1 -0.021853125 -0.00125 -0.024215625 3.01858284798e-06
434 1 -0.021853125 -0.00125 -0.023034375 4.27326591222e-05
435 1 -0.021853125 -0.00125 -0.021853125 0.000269497995657
436 1 -0.021853125 -0.00125 -0.020671875 2.98210878215e-05
437 1 -0.021853125 -0.00125 -0.019490625 7.91007702819e-05
438 1 -0.021853125 -0.00125 -0.018309375 0.000285716976454
439 1 -0.021853125 -0.00125 -0.017128125 0.00952837977307
440 1 -0.021853125 -0.00125 -0.015946875 0.0164954689327
441 1 -0.021853125 -0.00125 -0.014765625 0.0821594837903
442 1 -0.021853125 -0.00125 -0.013584375 0.159204067064
443 1 -0.021853125 -0.00125 -0.012403125 0.0871863098689
444 1 -0.021853125 -0.00125 -0.011221875 0.0815614770426
445 1 -0.021853125 -0.00125 -0.010040625 0.0438161440959
446 1 -0.021853125 -0.00125 -0.008859375 0.0468266784645
447 1 -0.021853125 -0.00125 -0.007678125 0.0792676260356
448 1 -0.021853125 -0.00125 -0.006496875 0.021424790456
449 1 -0.021853125 -0.00125 -0.005315625 0.00324353972147
450 1 -0.021853125 -0.00125 -0.004134375 0.0137736039836
451 1 -0.021853125 -0.00125 -0.002953125 0.0231409035852
452 1 -0.021853125 -0.00125 -0.001771875 0.0304006687118
453 1 -0.021853125 -0.00125 -0.000590625 0.0543379132733
454 1 -0.021853125 -0.00125 0.000590625 0.0671214035407
455 1 -0.021853125 -0.00125 0.001771875 0.0180654484791
456 1 -0.021853125 -0.00125 0.002953125 0.00767309841094
457 1 -0.021853125 -0.00125 0.004134375 0.00629742716423
458 1 -0.021853125 -0.00125 0.005315625 0.0113923605575
459 1 -0.021853125 -0.00125 0.006496875 0.0208346478975
460 1 -0.021853125 -0.00125 0.007678125 0.0104206476219
461 1 -0.021853125 -0.00125 0.008859375 0.0184798593266
462 1 -0.021853125 -0.00125 0.010040625 0.00416525747665
463 1 -0.021853125 -0.00125 0.011221875 0.000914724792663
464 1 -0.021853125 -0.00125 0.012403125 0.000141405118224
465 1 -0.021853125 -0.00125 0.013584375 4.09865810408e-06
466 1 -0.021853125 -0.00125 0.014765625 1.20923027515e-09
467 1 -0.021853125 -0.00125 0.015946875 5.26770036548e-18
468 1 -0.021853125 -0.00125 0.017128125 2.02733115805e-26
469 1 -0.021853125 -0.00125 0.018309375 1.63280372002e-40
470 1 -0.021853125 -0.00125 0.019490625 8.12997665627e-70
471 1 -0.021853125 -0.00125 0.020671875 0.0
472 1 -0.021853125 -0.00125 0.021853125 0.0
473 1 -0.021853125 -0.00125 0.023034375 0.0
474 1 -0.021853125 -0.00125 0.024215625 0.0
475 1 -0.021853125 -0.00125 0.025396875 0.0
476 1 -0.021853125 -0.00125 0.026578125 0.0
477 1 -0.021853125 -0.00125 0.027759375 0.0
478 1 -0.021853125 -0.00125 0.028940625 0.0
479 1 -0.020671875 -0.00125 -0.030121875 0.00117697623969
480 1 -0.020671875 -0.00125 -0.028940625 0.0440683367362
481 1 -0.020671875 -0.00125 -0.027759375 0.192196327815
482 1 -0.020671875 -0.00125 -0.026578125 0.107061176634
483 1 -0.020671875 -0.00125 -0.025396875 0.0210138720829
484 1 -0.020671875 -0.00125 -0.024215625 0.00257204409397
485 1 -0.020671875 -0.00125 -0.023034375 0.000475499704419
486 1 -0.020671875 -0.00125 -0.021853125 0.00969671995661
487 1 -0.020671875 -0.00125 -0.020671875 0.0065591937795
488 1 -0.020671875 -0.00125 -0.019490625 0.00917773314863
489 1 -0.020671875 -0.00125 -0.018309375 0.0199936340679
490 1 -0.020671875 -0.00125 -0.017128125 0.0363007643346
491 1 -0.020671875 -0.00125 -0.015946875 0.0526898586191
492 1 -0.020671875 -0.00125 -0.014765625 0.0907806637585
493 1 -0.020671875 -0.00125 -0.013584375 0.156818906241
494 1 -0.020671875 -0.00125 -0.012403125 0.0967644318054
495 1 -0.020671875 -0.00125 -0.011221875 0.0142276088986
496 1 -0.020671875 -0.00125 -0.010040625 0.0238982611456
497 1 -0.020671875 -0.00125 -0.008859375 0.0312895285837
498 1 -0.020671875 -0.00125 -0.007678125 0.0459164314339
499 1 -0.020671875 -0.00125 -0.006496875 0.0257450968367
500 1 -0.020671875 -0.00125 -0.005315625 0.0398201896749
501 1 -0.020671875 -0.00125 -0.004134375 0.0265956623587
502 1 -0.020671875 -0.00125 -0.002953125 0.0486398551354
503 1 -0.020671875 -0.00125 -0.001771875 0.0640977010588
504 1 -0.020671875 -0.00125 -0.000590625 0.0791604095599
505 1 -0.020671875 -0.00125 0.000590625 0.0834470177053
506 1 -0.020671875 -0.00125 0.001771875 0.0294753069546
507 1 -0.020671875 -0.00125 0.002953125 0.0234461796383
508 1 -0.020671875 -0.00125 0.004134375 0.00713257013431
509 1 -0.020671875 -0.00125 0.005315625 0.00575156419557
510 1 -0.020671875 -0.00125 0.006496875 0.00368948552782
511 1 -0.020671875 -0.00125 0.007678125 0.00352142833205
512 1 -0.020671875 -0.00125 0.008859375 0.0190212691139
513 1 -0.020671875 -0.00125 0.010040625 0.000794930874025
514 1 -0.020671875 -0.00125 0.011221875 0.000464448457347
515 1 -0.020671875 -0.00125 0.012403125 5.07999107753e-05
516 1 -0.020671875 -0.00125 0.013584375 1.70963942548e-06
517 1 -0.020671875 -0.00125 0.014765625 7.8203552582e-08
518 1 -0.020671875 -0.00125 0.015946875 1.01486021223e-09
519 1 -0.020671875 -0.00125 0.017128125 9.4228196618e-15
520 1 -0.020671875 -0.00125 0.018309375 2.84802926625e-20
521 1 -0.020671875 -0.00125 0.019490625 2.98041186135e-55
522 1 -0.020671875 -0.00125 0.020671875 7.57235835586e-251
523 1 -0.020671875 -0.00125 0.021853125 0.0
524 1 -0.020671875 -0.00125 0.023034375 0.0
525 1 -0.020671875 -0.00125 0.024215625 0.0
526 1 -0.020671875 -0.00125 0.025396875 0.0
527 1 -0.020671875 -0.00125 0.026578125 0.0
528 1 -0.020671875 -0.00125 0.027759375 0.0
529 1 -0.020671875 -0.00125 0.028940625 0.0
530 1 -0.020671875 -0.00125 0.030121875 0.0
531 1 -0.019490625 -0.00125 -0.031303125 0.000432272288306
532 1 -0.019490625 -0.00125 -0.030121875 0.00534250213136
533 1 -0.019490625 -0.00125 -0.028940625 0.0538148975047
534 1 -0.019490625 -0.00125 -0.027759375 0.0912730058906
535 1 -0.019490625 -0.00125 -0.026578125 0.146967487062