ITEM: TIMESTEP
0
ITEM: NUMBER OF ATOMS
3080
ITEM: BOX BOUNDS ss ss ss
-3.7007399999999996e-02 3.7007399999999996e-02
-2.0002499999999999e-03 2.5000000000000004e-07
-3.7007399999999996e-02 3.7007399999999996e-02
ITEM: ATOMS id type x y z c_1
0 1 -0.037209375 -0.00125 -0.000590625 0.999988384103
1 1 -0.036028125 -0.00125 -0.007678125 1.43956300673e-05
2 1 -0.036028125 -0.00125 -0.006496875 3.73241140108e-15
3 1 -0.036028125 -0.00125 -0.005315625 6.71747706528e-33
4 1 -0.036028125 -0.00125 -0.004134375 6.97325652632e-18
5 1 -0.036028125 -0.00125 -0.002953125 0.000433282946292
6 1 -0.036028125 -0.00125 -0.001771875 0.0440836360421
7 1 -0.036028125 -0.00125 -0.000590625 0.0317085594439
8 1 -0.036028125 -0.00125 0.000590625 5.81047786007e-07
9 1 -0.036028125 -0.00125 0.001771875 5.25823114154e-06
10 1 -0.036028125 -0.00125 0.002953125 1.31113697249e-23
11 1 -0.036028125 -0.00125 0.004134375 8.63826519535e-56
12 1 -0.036028125 -0.00125 0.005315625 7.5594279664e-65
13 1 -0.036028125 -0.00125 0.006496875 7.01111709135e-35
14 1 -0.036028125 -0.00125 0.007678125 1.48544619439e-21
15 1 -0.034846875 -0.00125 -0.011221875 0.0406536315242
16 1 -0.034846875 -0.00125 -0.010040625 0.00343340647851
17 1 -0.034846875 -0.00125 -0.008859375 0.0740290102954
18 1 -0.034846875 -0.00125 -0.007678125 3.82802756392e-06
19 1 -0.034846875 -0.00125 -0.006496875 5.80819215516e-10
20 1 -0.034846875 -0.00125 -0.005315625 2.17139198527e-33
21 1 -0.034846875 -0.00125 -0.004134375 3.40832658988e-19
22 1 -0.034846875 -0.00125 -0.002953125 0.00014383085369
23 1 -0.034846875 -0.00125 -0.001771875 0.0203768051954
24 1 -0.034846875 -0.00125 -0.000590625 0.00513295977233
25 1 -0.034846875 -0.00125 0.000590625 2.30316436331e-08
26 1 -0.034846875 -0.00125 0.001771875 1.09406724446e-14
27 1 -0.034846875 -0.00125 0.002953125 6.17284458218e-30
28 1 -0.034846875 -0.00125 0.004134375 2.60126937672e-81
29 1 -0.034846875 -0.00125 0.005315625 6.59440237076e-105
30 1 -0.034846875 -0.00125 0.006496875 5.61740344348e-76
31 1 -0.034846875 -0.00125 0.007678125 9.8608029055e-36
32 1 -0.034846875 -0.00125 0.008859375 2.51589821327e-07
33 1 -0.034846875 -0.00125 0.010040625 2.73084912584e-19
34 1 -0.034846875 -0.00125 0.011221875 1.07876965482e-15
35 1 -0.033665625 -0.00125 -0.013584375 0.000834115407144
36 1 -0.033665625 -0.00125 -0.012403125 0.268667311361
37 1 -0.033665625 -0.00125 -0.011221875 0.0985501194888
38 1 -0.033665625 -0.00125 -0.010040625 0.0125164219481
39 1 -0.033665625 -0.00125 -0.008859375 0.0212777361502
40 1 -0.033665625 -0.00125 -0.007678125 0.00120124275654
41 1 -0.033665625 -0.00125 -0.006496875 1.1048678117e-09
42 1 -0.033665625 -0.00125 -0.005315625 3.4083804029e-26
43 1 -0.033665625 -0.00125 -0.004134375 1.52014371482e-08
44 1 -0.033665625 -0.00125 -0.002953125 4.30164441635e-06
45 1 -0.033665625 -0.00125 -0.001771875 0.0018495740061
46 1 -0.033665625 -0.00125 -0.000590625 0.00749370306864
47 1 -0.033665625 -0.00125 0.000590625 7.98564441652e-08
48 1 -0.033665625 -0.00125 0.001771875 1.45095595754e-15
49 1 -0.033665625 -0.00125 0.002953125 1.1869573195e-27
50 1 -0.033665625 -0.00125 0.004134375 8.96223115052e-84
51 1 -0.033665625 -0.00125 0.005315625 1.04379485888e-94
52 1 -0.033665625 -0.00125 0.006496875 8.53494355866e-56
53 1 -0.033665625 -0.00125 0.007678125 3.24351311443e-23
54 1 -0.033665625 -0.00125 0.008859375 7.37679146902e-10
55 1 -0.033665625 -0.00125 0.010040625 4.32368689199e-16
56 1 -0.033665625 -0.00125 0.011221875 5.96820734048e-15
57 1 -0.033665625 -0.00125 0.012403125 8.91303873907e-09
58 1 -0.033665625 -0.00125 0.013584375 4.20733745573e-26
59 1 -0.032484375 -0.00125 -0.018309375 0.000767114702244
60 1 -0.032484375 -0.00125 -0.017128125 0.00171946699517
61 1 -0.032484375 -0.00125 -0.015946875 0.0144005547117
62 1 -0.032484375 -0.00125 -0.014765625 0.000625593330795
63 1 -0.032484375 -0.00125 -0.013584375 4.64105528925e-05
64 1 -0.032484375 -0.00125 -0.012403125 0.115868834451
65 1 -0.032484375 -0.00125 -0.011221875 0.116551486766
66 1 -0.032484375 -0.00125 -0.010040625 0.00732664322748
67 1 -0.032484375 -0.00125 -0.008859375 0.0140262297666
68 1 -0.032484375 -0.00125 -0.007678125 0.00118401987009
69 1 -0.032484375 -0.00125 -0.006496875 1.41310825014e-08
70 1 -0.032484375 -0.00125 -0.005315625 2.36770205426e-13
71 1 -0.032484375 -0.00125 -0.004134375 5.72321082768e-09
72 1 -0.032484375 -0.00125 -0.002953125 7.53172482024e-07
73 1 -0.032484375 -0.00125 -0.001771875 5.74105311838e-06
74 1 -0.032484375 -0.00125 -0.000590625 6.40641631575e-05
75 1 -0.032484375 -0.00125 0.000590625 1.08062059086e-06
76 1 -0.032484375 -0.00125 0.001771875 3.032762347e-06
77 1 -0.032484375 -0.00125 0.002953125 5.75157760785e-17
78 1 -0.032484375 -0.00125 0.004134375 1.76124543919e-26
79 1 -0.032484375 -0.00125 0.005315625 7.77422390759e-41
80 1 -0.032484375 -0.00125 0.006496875 3.13858301703e-36
81 1 -0.032484375 -0.00125 0.007678125 1.89017904528e-20
82 1 -0.032484375 -0.00125 0.008859375 2.07848554961e-10
83 1 -0.032484375 -0.00125 0.010040625 3.837456229e-12
84 1 -0.032484375 -0.00125 0.011221875 4.35071991097e-09
85 1 -0.032484375 -0.00125 0.012403125 1.23478790119e-11
86 1 -0.032484375 -0.00125 0.013584375 7.20812865975e-35
87 1 -0.032484375 -0.00125 0.014765625 1.0687323942e-16
88 1 -0.032484375 -0.00125 0.015946875 5.63735596953e-13
89 1 -0.032484375 -0.00125 0.017128125 7.41856143605e-13
90 1 -0.032484375 -0.00125 0.018309375 7.37095612197e-15
91 1 -0.031303125 -0.00125 -0.019490625 6.83450789824e-05
92 1 -0.031303125 -0.00125 -0.018309375 0.00160109377888
93 1 -0.031303125 -0.00125 -0.017128125 0.00969075464484
94 1 -0.031303125 -0.00125 -0.015946875 0.00521041803208
95 1 -0.031303125 -0.00125 -0.014765625 0.0021067461586
96 1 -0.031303125 -0.00125 -0.013584375 0.00104280893051
97 1 -0.031303125 -0.00125 -0.012403125 0.0267528761658
98 1 -0.031303125 -0.00125 -0.011221875 0.0293769803751
99 1 -0.031303125 -0.00125 -0.010040625 0.00317185036705
100 1 -0.031303125 -0.00125 -0.008859375 5.93738905435e-05
101 1 -0.031303125 -0.00125 -0.007678125 0.000173359168412
102 1 -0.031303125 -0.00125 -0.006496875 2.88142400868e-06
103 1 -0.031303125 -0.00125 -0.005315625 6.56067923226e-08
104 1 -0.031303125 -0.00125 -0.004134375 1.30240236094e-10
105 1 -0.031303125 -0.00125 -0.002953125 4.17890461113e-08
106 1 -0.031303125 -0.00125 -0.001771875 8.31417508854e-06
107 1 -0.031303125 -0.00125 -0.000590625 9.19559231181e-05
108 1 -0.031303125 -0.00125 0.000590625 2.76966028465e-05
109 1 -0.031303125 -0.00125 0.001771875 1.08162591154e-07
110 1 -0.031303125 -0.00125 0.002953125 1.53373249349e-08
111 1 -0.031303125 -0.00125 0.004134375 1.28939506256e-09
112 1 -0.031303125 -0.00125 0.005315625 1.44738234599e-13
113 1 -0.031303125 -0.00125 0.006496875 6.63810471964e-20
114 1 -0.031303125 -0.00125 0.007678125 5.11123537442e-14
115 1 -0.031303125 -0.00125 0.008859375 1.28581022274e-14
116 1 -0.031303125 -0.00125 0.010040625 1.05599663597e-13
117 1 -0.031303125 -0.00125 0.011221875 9.84652912559e-11
118 1 -0.031303125 -0.00125 0.012403125 4.61765461437e-07
119 1 -0.031303125 -0.00125 0.013584375 4.18672643443e-13
120 1 -0.031303125 -0.00125 0.014765625 9.2838349515e-14
121 1 -0.031303125 -0.00125 0.015946875 1.62950351298e-13
122 1 -0.031303125 -0.00125 0.017128125 2.2052153037e-24
123 1 -0.031303125 -0.00125 0.018309375 1.54405777225e-22
124 1 -0.031303125 -0.00125 0.019490625 6.6165430015e-33
125 1 -0.030121875 -0.00125 -0.020671875 2.28661778469e-06
126 1 -0.030121875 -0.00125 -0.019490625 0.000430777081061
127 1 -0.030121875 -0.00125 -0.018309375 0.000484829880562
128 1 -0.030121875 -0.00125 -0.017128125 0.00321930326648
129 1 -0.030121875 -0.00125 -0.015946875 0.00107299554984
130 1 -0.030121875 -0.00125 -0.014765625 4.11397391489e-05
131 1 -0.030121875 -0.00125 -0.013584375 6.57032889503e-08
132 1 -0.030121875 -0.00125 -0.012403125 6.60727577859e-05
133 1 -0.030121875 -0.00125 -0.011221875 2.34410088276e-05
134 1 -0.030121875 -0.00125 -0.010040625 1.17180243255e-07
135 1 -0.030121875 -0.00125 -0.008859375 9.16234327998e-12
136 1 -0.030121875 -0.00125 -0.007678125 6.00550738379e-09
137 1 -0.030121875 -0.00125 -0.006496875 5.83123103871e-10
138 1 -0.030121875 -0.00125 -0.005315625 6.08598100146e-07
139 1 -0.030121875 -0.00125 -0.004134375 1.52902491965e-12
140 1 -0.030121875 -0.00125 -0.002953125 1.10453405835e-07
141 1 -0.030121875 -0.00125 -0.001771875 5.26486582515e-07
142 1 -0.030121875 -0.00125 -0.000590625 2.23488191973e-07
143 1 -0.030121875 -0.00125 0.000590625 4.94355181135e-06
144 1 -0.030121875 -0.00125 0.001771875 2.07294399013e-06
145 1 -0.030121875 -0.00125 0.002953125 3.41331267124e-06
146 1 -0.030121875 -0.00125 0.004134375 2.18573788889e-06
147 1 -0.030121875 -0.00125 0.005315625 1.04282842238e-08
148 1 -0.030121875 -0.00125 0.006496875 5.07151057321e-16
149 1 -0.030121875 -0.00125 0.007678125 5.61969307954e-14
150 1 -0.030121875 -0.00125 0.008859375 4.58824748925e-16
151 1 -0.030121875 -0.00125 0.010040625 2.22696493858e-08
152 1 -0.030121875 -0.00125 0.011221875 1.74255184494e-08
153 1 -0.030121875 -0.00125 0.012403125 2.40642066021e-05
154 1 -0.030121875 -0.00125 0.013584375 0.000229481481172
155 1 -0.030121875 -0.00125 0.014765625 3.49364543964e-07
156 1 -0.030121875 -0.00125 0.015946875 5.19861776108e-13
157 1 -0.030121875 -0.00125 0.017128125 8.76468323052e-19
158 1 -0.030121875 -0.00125 0.018309375 1.61703624321e-27
159 1 -0.030121875 -0.00125 0.019490625 1.87582813318e-44
160 1 -0.030121875 -0.00125 0.020671875 1.66046478058e-66
161 1 -0.028940625 -0.00125 -0.021853125 0.0537250908524
162 1 -0.028940625 -0.00125 -0.020671875 0.0061145558172
163 1 -0.028940625 -0.00125 -0.019490625 0.0041216643712
164 1 -0.028940625 -0.00125 -0.018309375 0.000357257272201
165 1 -0.028940625 -0.00125 -0.017128125 8.34550434087e-05
166 1 -0.028940625 -0.00125 -0.015946875 7.83191121776e-05
167 1 -0.028940625 -0.00125 -0.014765625 1.07454870645e-05
168 1 -0.028940625 -0.00125 -0.013584375 3.61781237416e-10
169 1 -0.028940625 -0.00125 -0.012403125 7.37633064613e-12
170 1 -0.028940625 -0.00125 -0.011221875 1.98369540575e-12
171 1 -0.028940625 -0.00125 -0.010040625 5.62027710992e-13
172 1 -0.028940625 -0.00125 -0.008859375 4.2841971122e-15
173 1 -0.028940625 -0.00125 -0.007678125 5.69234100761e-13
174 1 -0.028940625 -0.00125 -0.006496875 3.56018437242e-08
175 1 -0.028940625 -0.00125 -0.005315625 1.49283628531e-06
176 1 -0.028940625 -0.00125 -0.004134375 7.98209105284e-06
177 1 -0.028940625 -0.00125 -0.002953125 4.50978126937e-06
178 1 -0.028940625 -0.00125 -0.001771875 1.26089847508e-05
179 1 -0.028940625 -0.00125 -0.000590625 3.60095171776e-05
180 1 -0.028940625 -0.00125 0.000590625 3.70215408133e-05
181 1 -0.028940625 -0.00125 0.001771875 1.89566000226e-05
182 1 -0.028940625 -0.00125 0.002953125 1.34315062106e-05
183 1 -0.028940625 -0.00125 0.004134375 6.44636728053e-08
184 1 -0.028940625 -0.00125 0.005315625 1.25388800849e-10
185 1 -0.028940625 -0.00125 0.006496875 2.59073698428e-08
186 1 -0.028940625 -0.00125 0.007678125 1.35091577031e-12
187 1 -0.028940625 -0.00125 0.008859375 7.5799066413e-18
188 1 -0.028940625 -0.00125 0.010040625 2.252145335e-10
189 1 -0.028940625 -0.00125 0.011221875 6.72315023482e-06
190 1 -0.028940625 -0.00125 0.012403125 5.74837608514e-05
191 1 -0.028940625 -0.00125 0.013584375 0.000383543510692
192 1 -0.028940625 -0.00125 0.014765625 4.3015725969e-07
193 1 -0.028940625 -0.00125 0.015946875 9.79305487225e-10
194 1 -0.028940625 -0.00125 0.017128125 7.20057429861e-13
195 1 -0.028940625 -0.00125 0.018309375 9.69986682e-22
196 1 -0.028940625 -0.00125 0.019490625 3.6090201702e-54
197 1 -0.028940625 -0.00125 0.020671875 2.08592427205e-57
198 1 -0.028940625 -0.00125 0.021853125 2.90365630955e-30
199 1 -0.027759375 -0.00125 -0.024215625 5.34959662764e-05
200 1 -0.027759375 -0.00125 -0.023034375 0.0154868348613
201 1 -0.027759375 -0.00125 -0.021853125 0.141715414276
202 1 -0.027759375 -0.00125 -0.020671875 0.0504074646132
203 1 -0.027759375 -0.00125 -0.019490625 0.0118747654819
204 1 -0.027759375 -0.00125 -0.018309375 0.00358254475792
205 1 -0.027759375 -0.00125 -0.017128125 0.000441708382395
206 1 -0.027759375 -0.00125 -0.015946875 5.32052592535e-08
207 1 -0.027759375 -0.00125 -0.014765625 2.05586898832e-12
208 1 -0.027759375 -0.00125 -0.013584375 2.52851113844e-15
209 1 -0.027759375 -0.00125 -0.012403125 3.73580038226e-09
210 1 -0.027759375 -0.00125 -0.011221875 2.38484312131e-11
211 1 -0.027759375 -0.00125 -0.010040625 3.35739699482e-10
212 1 -0.027759375 -0.00125 -0.008859375 2.80172099746e-10
213 1 -0.027759375 -0.00125 -0.007678125 2.88321269188e-07
214 1 -0.027759375 -0.00125 -0.006496875 0.000282122460828
215 1 -0.027759375 -0.00125 -0.005315625 0.0020567859367
216 1 -0.027759375 -0.00125 -0.004134375 0.00605576131728
217 1 -0.027759375 -0.00125 -0.002953125 0.0027086176312
218 1 -0.027759375 -0.00125 -0.001771875 0.000677919648722
219 1 -0.027759375 -0.00125 -0.000590625 0.00214232318792
220 1 -0.027759375 -0.00125 0.000590625 0.000655025286281
221 1 -0.027759375 -0.00125 0.001771875 0.000775846236174
222 1 -0.027759375 -0.00125 0.002953125 2.69060995678e-05
223 1 -0.027759375 -0.00125 0.004134375 1.70497753978e-06
224 1 -0.027759375 -0.00125 0.005315625 5.52526743462e-09
225 1 -0.027759375 -0.00125 0.006496875 1.44681754315e-08
226 1 -0.027759375 -0.00125 0.007678125 7.53320165554e-08
227 1 -0.027759375 -0.00125 0.008859375 9.76273125035e-06
228 1 -0.027759375 -0.00125 0.010040625 0.000471600534645
229 1 -0.027759375 -0.00125 0.011221875 0.00144518424935
230 1 -0.027759375 -0.00125 0.012403125 0.00618821526357
231 1 -0.027759375 -0.00125 0.013584375 0.0142986818824
232 1 -0.027759375 -0.00125 0.014765625 0.00126936532125
233 1 -0.027759375 -0.00125 0.015946875 5.06637671366e-06
234 1 -0.027759375 -0.00125 0.017128125 9.46709254615e-11
235 1 -0.027759375 -0.00125 0.018309375 9.13242694362e-18
236 1 -0.027759375 -0.00125 0.019490625 4.85544725937e-36
237 1 -0.027759375 -0.00125 0.020671875 2.2699336305e-51
238 1 -0.027759375 -0.00125 0.021853125 1.1370991964e-36
239 1 -0.027759375 -0.00125 0.023034375 1.13713686543e-64
240 1 -0.027759375 -0.00125 0.024215625 1.73942480816e-189
241 1 -0.026578125 -0.00125 -0.026578125 1.5933800089e-11
242 1 -0.026578125 -0.00125 -0.025396875 6.80756561995e-09
243 1 -0.026578125 -0.00125 -0.024215625 1.04474120395e-06
244 1 -0.026578125 -0.00125 -0.023034375 0.00315192769584
245 1 -0.026578125 -0.00125 -0.021853125 0.0518005932691
246 1 -0.026578125 -0.00125 -0.020671875 0.0400457926742
247 1 -0.026578125 -0.00125 -0.019490625 0.0364120975723
248 1 -0.026578125 -0.00125 -0.018309375 0.0107855160478
249 1 -0.026578125 -0.00125 -0.017128125 0.00101039610335
250 1 -0.026578125 -0.00125 -0.015946875 3.82861695763e-07
251 1 -0.026578125 -0.00125 -0.014765625 1.94395546811e-15
252 1 -0.026578125 -0.00125 -0.013584375 4.48749430753e-14
253 1 -0.026578125 -0.00125 -0.012403125 2.53982218673e-12
254 1 -0.026578125 -0.00125 -0.011221875 3.00771315944e-08
255 1 -0.026578125 -0.00125 -0.010040625 1.27274209299e-07
256 1 -0.026578125 -0.00125 -0.008859375 6.03414806425e-05
257 1 -0.026578125 -0.00125 -0.007678125 0.00241209201521
258 1 -0.026578125 -0.00125 -0.006496875 0.0103152415292
259 1 -0.026578125 -0.00125 -0.005315625 0.0334338099208
260 1 -0.026578125 -0.00125 -0.004134375 0.0260118276378
261 1 -0.026578125 -0.00125 -0.002953125 0.021667153482
262 1 -0.026578125 -0.00125 -0.001771875 0.0161344221747
263 1 -0.026578125 -0.00125 -0.000590625 0.00486400734315
264 1 -0.026578125 -0.00125 0.000590625 0.00658546952706
265 1 -0.026578125 -0.00125 0.001771875 0.00385938103369
266 1 -0.026578125 -0.00125 0.002953125 0.00155763171884
267 1 -0.026578125 -0.00125 0.004134375 0.000239541747467
268 1 -0.026578125 -0.00125 0.005315625 9.14239822514e-05
269 1 -0.026578125 -0.00125 0.006496875 5.15581638736e-09
270 1 -0.026578125 -0.00125 0.007678125 6.9952246588e-07
271 1 -0.026578125 -0.00125 0.008859375 3.92053276174e-05
272 1 -0.026578125 -0.00125 0.010040625 0.0012776940685
273 1 -0.026578125 -0.00125 0.011221875 0.0174098505695
274 1 -0.026578125 -0.00125 0.012403125 0.0276355408853
275 1 -0.026578125 -0.00125 0.013584375 0.035168798114
276 1 -0.026578125 -0.00125 0.014765625 0.00568718844085
277 1 -0.026578125 -0.00125 0.015946875 1.42378344404e-05
278 1 -0.026578125 -0.00125 0.017128125 2.20350556828e-07
279 1 -0.026578125 -0.00125 0.018309375 2.56206576998e-09
280 1 -0.026578125 -0.00125 0.019490625 6.13281914641e-18
281 1 -0.026578125 -0.00125 0.020671875 1.72286415949e-35
282 1 -0.026578125 -0.00125 0.021853125 5.52141765006e-57
283 1 -0.026578125 -0.00125 0.023034375 5.91614964775e-161
284 1 -0.026578125 -0.00125 0.024215625 3.49776268338e-116
285 1 -0.026578125 -0.00125 0.025396875 2.04917172714e-77
286 1 -0.026578125 -0.00125 0.026578125 1.70447364486e-67
287 1 -0.025396875 -0.00125 -0.026578125 2.15320146271e-16
288 1 -0.025396875 -0.00125 -0.025396875 7.40244338344e-09
289 1 -0.025396875 -0.00125 -0.024215625 1.72003903594e-05
290 1 -0.025396875 -0.00125 -0.023034375 0.00452790795971
291 1 -0.025396875 -0.00125 -0.021853125 0.046984938734
292 1 -0.025396875 -0.00125 -0.020671875 0.0580122295667
293 1 -0.025396875 -0.00125 -0.019490625 0.0236214016908
294 1 -0.025396875 -0.00125 -0.018309375 0.0276143235928
295 1 -0.025396875 -0.00125 -0.017128125 0.000126485021997
296 1 -0.025396875 -0.00125 -0.015946875 3.445773168e-06
297 1 -0.025396875 -0.00125 -0.014765625 1.82439376658e-08
298 1 -0.025396875 -0.00125 -0.013584375 6.60621174744e-09
299 1 -0.025396875 -0.00125 -0.012403125 1.41740069827e-07
300 1 -0.025396875 -0.00125 -0.011221875 0.000148732036846
301 1 -0.025396875 -0.00125 -0.010040625 0.00381338078568
302 1 -0.025396875 -0.00125 -0.008859375 0.0140593391371
303 1 -0.025396875 -0.00125 -0.007678125 0.0129520173645
304 1 -0.025396875 -0.00125 -0.006496875 0.0297597140046
305 1 -0.025396875 -0.00125 -0.005315625 0.0239235522655
306 1 -0.025396875 -0.00125 -0.004134375 0.0255794982579
307 1 -0.025396875 -0.00125 -0.002953125 0.0137934568591
308 1 -0.025396875 -0.00125 -0.001771875 0.01182993823
309 1 -0.025396875 -0.00125 -0.000590625 0.00216716477024
310 1 -0.025396875 -0.00125 0.000590625 0.00462769100535
311 1 -0.025396875 -0.00125 0.001771875 0.00427154465252
312 1 -0.025396875 -0.00125 0.002953125 0.000679649133459
313 1 -0.025396875 -0.00125 0.004134375 0.00108523922895
314 1 -0.025396875 -0.00125 0.005315625 0.00169361168502
315 1 -0.025396875 -0.00125 0.006496875 0.000567632988336
316 1 -0.025396875 -0.00125 0.007678125 0.000953190756254
317 1 -0.025396875 -0.00125 0.008859375 0.00142986502976
318 1 -0.025396875 -0.00125 0.010040625 0.00724984379828
319 1 -0.025396875 -0.00125 0.011221875 0.00237732003488
320 1 -0.025396875 -0.00125 0.012403125 0.0787023095342
321 1 -0.025396875 -0.00125 0.013584375 0.0460814626497
322 1 -0.025396875 -0.00125 0.014765625 0.0173735825902
323 1 -0.025396875 -0.00125 0.015946875 9.34040166867e-05
324 1 -0.025396875 -0.00125 0.017128125 2.40346733749e-05
325 1 -0.025396875 -0.00125 0.018309375 1.6692227816e-07
326 1 -0.025396875 -0.00125 0.019490625 4.53384317684e-12
327 1 -0.025396875 -0.00125 0.020671875 7.10430488613e-19
328 1 -0.025396875 -0.00125 0.021853125 9.92220422265e-60
329 1 -0.025396875 -0.00125 0.023034375 1.44211666783e-96
330 1 -0.025396875 -0.00125 0.024215625 1.64131776443e-102
331 1 -0.025396875 -0.00125 0.025396875 1.18472859329e-68
332 1 -0.025396875 -0.00125 0.026578125 4.65496776831e-170
333 1 -0.024215625 -0.00125 -0.027759375 1.52398558248e-09
334 1 -0.024215625 -0.00125 -0.026578125 5.51825574241e-08
335 1 -0.024215625 -0.00125 -0.025396875 2.65311832661e-06
336 1 -0.024215625 -0.00125 -0.024215625 0.000915534809274
337 1 -0.024215625 -0.00125 -0.023034375 0.00498782797888
338 1 -0.024215625 -0.00125 -0.021853125 0.0235712335224
339 1 -0.024215625 -0.00125 -0.020671875 0.0344828480694
340 1 -0.024215625 -0.00125 -0.019490625 0.0169419800463
341 1 -0.024215625 -0.00125 -0.018309375 0.00122981345801
342 1 -0.024215625 -0.00125 -0.017128125 0.000274428301231
343 1 -0.024215625 -0.00125 -0.015946875 8.04528419819e-05
344 1 -0.024215625 -0.00125 -0.014765625 9.76395314576e-06
345 1 -0.024215625 -0.00125 -0.013584375 6.46402747558e-05
346 1 -0.024215625 -0.00125 -0.012403125 0.000453245712591
347 1 -0.024215625 -0.00125 -0.011221875 0.00213189592909
348 1 -0.024215625 -0.00125 -0.010040625 0.0101148922193
349 1 -0.024215625 -0.00125 -0.008859375 0.0137452127882
350 1 -0.024215625 -0.00125 -0.007678125 0.00871047271071
351 1 -0.024215625 -0.00125 -0.006496875 0.0116039798544
352 1 -0.024215625 -0.00125 -0.005315625 0.0111805038815
353 1 -0.024215625 -0.00125 -0.004134375 0.00783316089955
354 1 -0.024215625 -0.00125 -0.002953125 0.00549910667092
355 1 -0.024215625 -0.00125 -0.001771875 0.00586612435188
356 1 -0.024215625 -0.00125 -0.000590625 0.00151583489404
357 1 -0.024215625 -0.00125 0.000590625 0.00375886110437
358 1 -0.024215625 -0.00125 0.001771875 0.00431362742656
359 1 -0.024215625 -0.00125 0.002953125 0.000957776896527
360 1 -0.024215625 -0.00125 0.004134375 0.000871074887735
361 1 -0.024215625 -0.00125 0.005315625 0.000991660532057
362 1 -0.024215625 -0.00125 0.006496875 0.000543017794662
363 1 -0.024215625 -0.00125 0.007678125 0.00156443858785
364 1 -0.024215625 -0.00125 0.008859375 0.00305960608791
365 1 -0.024215625 -0.00125 0.010040625 0.0171035989807
366 1 -0.024215625 -0.00125 0.011221875 0.0134917743374
367 1 -0.024215625 -0.00125 0.012403125 0.0435037116216
368 1 -0.024215625 -0.00125 0.013584375 0.0337654162945
369 1 -0.024215625 -0.00125 0.014765625 0.010247160095
370 1 -0.024215625 -0.00125 0.015946875 0.00176168733958
371 1 -0.024215625 -0.00125 0.017128125 9.4525801555e-05
372 1 -0.024215625 -0.00125 0.018309375 6.09072760898e-07
373 1 -0.024215625 -0.00125 0.019490625 1.55290702877e-12
374 1 -0.024215625 -0.00125 0.020671875 6.25841280421e-16
375 1 -0.024215625 -0.00125 0.021853125 1.38990629989e-25
376 1 -0.024215625 -0.00125 0.023034375 2.51760073227e-54
377 1 -0.024215625 -0.00125 0.024215625 4.99640815715e-84
378 1 -0.024215625 -0.00125 0.025396875 3.19386879286e-66
379 1 -0.024215625 -0.00125 0.026578125 3.46352415624e-76
380 1 -0.024215625 -0.00125 0.027759375 5.50346527512e-64
381 1 -0.023034375 -0.00125 -0.027759375 9.76687462557e-09
382 1 -0.023034375 -0.00125 -0.026578125 0.00010842183638
383 1 -0.023034375 -0.00125 -0.025396875 0.000416005322647
384 1 -0.023034375 -0.00125 -0.024215625 0.000696324866516
385 1 -0.023034375 -0.00125 -0.023034375 0.00739055632722
386 1 -0.023034375 -0.00125 -0.021853125 0.00898721714443
387 1 -0.023034375 -0.00125 -0.020671875 0.0392843969544
388 1 -0.023034375 -0.00125 -0.019490625 0.0151810341345
389 1 -0.023034375 -0.00125 -0.018309375 0.0133958544458
390 1 -0.023034375 -0.00125 -0.017128125 0.00455375867621
391 1 -0.023034375 -0.00125 -0.015946875 0.00157556966555
392 1 -0.023034375 -0.00125 -0.014765625 0.000188445875792
393 1 -0.023034375 -0.00125 -0.013584375 0.000604250628378
394 1 -0.023034375 -0.00125 -0.012403125 0.000722628180693
395 1 -0.023034375 -0.00125 -0.011221875 0.00502811463687
396 1 -0.023034375 -0.00125 -0.010040625 0.0177384158987
397 1 -0.023034375 -0.00125 -0.008859375 0.0181274810799
398 1 -0.023034375 -0.00125 -0.007678125 0.0135738117013
399 1 -0.023034375 -0.00125 -0.006496875 0.0167938357976
400 1 -0.023034375 -0.00125 -0.005315625 0.00894995846508
401 1 -0.023034375 -0.00125 -0.004134375 0.0173081563083
402 1 -0.023034375 -0.00125 -0.002953125 0.0108881897557
403 1 -0.023034375 -0.00125 -0.001771875 0.00551522152976
404 1 -0.023034375 -0.00125 -0.000590625 0.00210059860517
405 1 -0.023034375 -0.00125 0.000590625 0.00338380145121
406 1 -0.023034375 -0.00125 0.001771875 0.00225238116101
407 1 -0.023034375 -0.00125 0.002953125 0.00209659229242
408 1 -0.023034375 -0.00125 0.004134375 0.000630357021725
409 1 -0.023034375 -0.00125 0.005315625 6.54211729181e-05
410 1 -0.023034375 -0.00125 0.006496875 0.00100952295015
411 1 -0.023034375 -0.00125 0.007678125 0.0028625111457
412 1 -0.023034375 -0.00125 0.008859375 0.00510381484865
413 1 -0.023034375 -0.00125 0.010040625 0.0277753529249
414 1 -0.023034375 -0.00125 0.011221875 0.02816642773
415 1 -0.023034375 -0.00125 0.012403125 0.043348897107
416 1 -0.023034375 -0.00125 0.013584375 0.0392590764759
417 1 -0.023034375 -0.00125 0.014765625 0.019903424645
418 1 -0.023034375 -0.00125 0.015946875 0.00390158298638
419 1 -0.023034375 -0.00125 0.017128125 0.000139081864582
420 1 -0.023034375 -0.00125 0.018309375 5.59880896702e-05
421 1 -0.023034375 -0.00125 0.019490625 2.53064239963e-05
422 1 -0.023034375 -0.00125 0.020671875 6.76191055337e-06
423 1 -0.023034375 -0.00125 0.021853125 4.00306032528e-14
424 1 -0.023034375 -0.00125 0.023034375 3.86207579297e-23
425 1 -0.023034375 -0.00125 0.024215625 6.56090325176e-25
426 1 -0.023034375 -0.00125 0.025396875 6.21620878788e-29
427 1 -0.023034375 -0.00125 0.026578125 8.2536434789e-29
428 1 -0.023034375 -0.00125 0.027759375 5.1450119813e-15
429 1 -0.021853125 -0.00125 -0.028940625 1.01582533722e-05
430 1 -0.021853125 -0.00125 -0.027759375 9.09568537138e-05
431 1 -0.021853125 -0.00125 -0.026578125 6.33661278441e-05
432 1 -0.021853125 -0.00125 -0.025396875 0.00215954590015
433 1 -0.021853125 -0.00125 -0.024215625 0.00546180630184
434 1 -0.021853125 -0.00125 -0.023034375 0.00993828639145
435 1 -0.021853125 -0.00125 -0.021853125 0.0323823452795
436 1 -0.021853125 -0.00125 -0.020671875 0.0437754167308
437 1 -0.021853125 -0.00125 -0.019490625 0.0383820943316
438 1 -0.021853125 -0.00125 -0.018309375 0.0272521154631
439 1 -0.021853125 -0.00125 -0.017128125 0.0174053633664
440 1 -0.021853125 -0.00125 -0.015946875 0.0125532794375
441 1 -0.021853125 -0.00125 -0.014765625 0.00707337477452
442 1 -0.021853125 -0.00125 -0.013584375 0.00266893064462
443 1 -0.021853125 -0.00125 -0.012403125 0.000772991947499
444 1 -0.021853125 -0.00125 -0.011221875 0.00705817770493
445 1 -0.021853125 -0.00125 -0.010040625 0.0163089366978
446 1 -0.021853125 -0.00125 -0.008859375 0.0133277524435
447 1 -0.021853125 -0.00125 -0.007678125 0.0308503740703
448 1 -0.021853125 -0.00125 -0.006496875 0.0180499759648
449 1 -0.021853125 -0.00125 -0.005315625 0.0105786220766
450 1 -0.021853125 -0.00125 -0.004134375 0.0103297771902
451 1 -0.021853125 -0.00125 -0.002953125 0.00573316084609
452 1 -0.021853125 -0.00125 -0.001771875 0.00679676118869
453 1 -0.021853125 -0.00125 -0.000590625 0.00442188420553
454 1 -0.021853125 -0.00125 0.000590625 0.00521019388392
455 1 -0.021853125 -0.00125 0.001771875 0.00429491619943
456 1 -0.021853125 -0.00125 0.002953125 0.0100084969551
457 1 -0.021853125 -0.00125 0.004134375 0.0137677348769
458 1 -0.021853125 -0.00125 0.005315625 0.00626145129382
459 1 -0.021853125 -0.00125 0.006496875 0.00165348157387
460 1 -0.021853125 -0.00125 0.007678125 0.00541138381084
461 1 -0.021853125 -0.00125 0.008859375 0.0157308187608
462 1 -0.021853125 -0.00125 0.010040625 0.0323714609815
463 1 -0.021853125 -0.00125 0.011221875 0.0510797764504
464 1 -0.021853125 -0.00125 0.012403125 0.0679922389954
465 1 -0.021853125 -0.00125 0.013584375 0.0778289362974
466 1 -0.021853125 -0.00125 0.014765625 0.037593687998
467 1 -0.021853125 -0.00125 0.015946875 0.00970484101756
468 1 -0.021853125 -0.00125 0.017128125 0.00312918482055
469 1 -0.021853125 -0.00125 0.018309375 0.000705808124274
470 1 -0.021853125 -0.00125 0.019490625 0.00274113939799
471 1 -0.021853125 -0.00125 0.020671875 0.000275203756494
472 1 -0.021853125 -0.00125 0.021853125 3.36640787605e-05
473 1 -0.021853125 -0.00125 0.023034375 4.0370617256e-09
474 1 -0.021853125 -0.00125 0.024215625 7.54706931357e-13
475 1 -0.021853125 -0.00125 0.025396875 5.33949443854e-09
476 1 -0.021853125 -0.00125 0.026578125 1.6137986635e-10
477 1 -0.021853125 -0.00125 0.027759375 1.75999531459e-08
478 1 -0.021853125 -0.00125 0.028940625 4.3910643948e-09
479 1 -0.020671875 -0.00125 -0.030121875 1.33664984836e-05
480 1 -0.020671875 -0.00125 -0.028940625 7.23796020903e-06
481 1 -0.020671875 -0.00125 -0.027759375 4.21202032001e-05
482 1 -0.020671875 -0.00125 -0.026578125 0.000107952651777
483 1 -0.020671875 -0.00125 -0.025396875 0.00107992198903
484 1 -0.020671875 -0.00125 -0.024215625 0.00302188412571
485 1 -0.020671875 -0.00125 -0.023034375 0.0125104533897
486 1 -0.020671875 -0.00125 -0.021853125 0.0346957731468
487 1 -0.020671875 -0.00125 -0.020671875 0.0379255889628
488 1 -0.020671875 -0.00125 -0.019490625 0.065132661941
489 1 -0.020671875 -0.00125 -0.018309375 0.081020240187
490 1 -0.020671875 -0.00125 -0.017128125 0.0516951241137
491 1 -0.020671875 -0.00125 -0.015946875 0.0414978982175
492 1 -0.020671875 -0.00125 -0.014765625 0.0174589206165
493 1 -0.020671875 -0.00125 -0.013584375 0.00713233976397
494 1 -0.020671875 -0.00125 -0.012403125 0.00933732241301
495 1 -0.020671875 -0.00125 -0.011221875 0.00433644761847
496 1 -0.020671875 -0.00125 -0.010040625 0.0157769273429
497 1 -0.020671875 -0.00125 -0.008859375 0.00930765092498
498 1 -0.020671875 -0.00125 -0.007678125 0.0088140931141
499 1 -0.020671875 -0.00125 -0.006496875 0.0214253473796
500 1 -0.020671875 -0.00125 -0.005315625 0.0302614795792
501 1 -0.020671875 -0.00125 -0.004134375 0.0146111908757
502 1 -0.020671875 -0.00125 -0.002953125 0.0110592736398
503 1 -0.020671875 -0.00125 -0.001771875 0.0405108391625
504 1 -0.020671875 -0.00125 -0.000590625 0.0183635830368
505 1 -0.020671875 -0.00125 0.000590625 0.0222363864581
506 1 -0.020671875 -0.00125 0.001771875 0.0374977993155
507 1 -0.020671875 -0.00125 0.002953125 0.0197603105646
508 1 -0.020671875 -0.00125 0.004134375 0.0334991091246
509 1 -0.020671875 -0.00125 0.005315625 0.0052167562045
510 1 -0.020671875 -0.00125 0.006496875 0.00730583637059
511 1 -0.020671875 -0.00125 0.007678125 0.0126968645702
512 1 -0.020671875 -0.00125 0.008859375 0.0429874739972
513 1 -0.020671875 -0.00125 0.010040625 0.0577329992359
514 1 -0.020671875 -0.00125 0.011221875 0.125662957617
515 1 -0.020671875 -0.00125 0.012403125 0.139096280573
516 1 -0.020671875 -0.00125 0.013584375 0.0899082241736