ITEM: TIMESTEP
0
ITEM: NUMBER OF ATOMS
3080
ITEM: BOX BOUNDS ss ss ss
-3.7007399999999996e-02 3.7007399999999996e-02
-2.0002499999999999e-03 2.5000000000000004e-07
-3.7007399999999996e-02 3.7007399999999996e-02
ITEM: ATOMS id type x y z c_1
0 1 -0.037209375 -0.00125 -0.000590625 0.642229666727
1 1 -0.036028125 -0.00125 -0.007678125 0.000451878945941
2 1 -0.036028125 -0.00125 -0.006496875 1.31862899209e-06
3 1 -0.036028125 -0.00125 -0.005315625 1.25552245064e-10
4 1 -0.036028125 -0.00125 -0.004134375 1.5415018542e-07
5 1 -0.036028125 -0.00125 -0.002953125 0.0340762713335
6 1 -0.036028125 -0.00125 -0.001771875 0.235479867765
7 1 -0.036028125 -0.00125 -0.000590625 0.226110617664
8 1 -0.036028125 -0.00125 0.000590625 0.164035931939
9 1 -0.036028125 -0.00125 0.001771875 0.207568671467
10 1 -0.036028125 -0.00125 0.002953125 0.00151222027336
11 1 -0.036028125 -0.00125 0.004134375 2.40416630397e-09
12 1 -0.036028125 -0.00125 0.005315625 1.43261062455e-12
13 1 -0.036028125 -0.00125 0.006496875 1.0479703503e-08
14 1 -0.036028125 -0.00125 0.007678125 2.41830424568e-06
15 1 -0.034846875 -0.00125 -0.011221875 0.00435747889431
16 1 -0.034846875 -0.00125 -0.010040625 0.0032956084884
17 1 -0.034846875 -0.00125 -0.008859375 0.0870785812665
18 1 -0.034846875 -0.00125 -0.007678125 0.000341773539051
19 1 -0.034846875 -0.00125 -0.006496875 2.38788291352e-06
20 1 -0.034846875 -0.00125 -0.005315625 2.72299488923e-10
21 1 -0.034846875 -0.00125 -0.004134375 1.05793323093e-07
22 1 -0.034846875 -0.00125 -0.002953125 0.0194424776622
23 1 -0.034846875 -0.00125 -0.001771875 0.251334918308
24 1 -0.034846875 -0.00125 -0.000590625 0.235978544707
25 1 -0.034846875 -0.00125 0.000590625 0.230005867299
26 1 -0.034846875 -0.00125 0.001771875 0.18258590937
27 1 -0.034846875 -0.00125 0.002953125 0.00713214935944
28 1 -0.034846875 -0.00125 0.004134375 1.48598097689e-11
29 1 -0.034846875 -0.00125 0.005315625 4.14462990257e-19
30 1 -0.034846875 -0.00125 0.006496875 1.53527397123e-15
31 1 -0.034846875 -0.00125 0.007678125 1.09612242667e-05
32 1 -0.034846875 -0.00125 0.008859375 0.0283205479256
33 1 -0.034846875 -0.00125 0.010040625 0.000325864434865
34 1 -0.034846875 -0.00125 0.011221875 0.00100151145252
35 1 -0.033665625 -0.00125 -0.013584375 7.78119013519e-06
36 1 -0.033665625 -0.00125 -0.012403125 0.0478294661789
37 1 -0.033665625 -0.00125 -0.011221875 0.0102321238337
38 1 -0.033665625 -0.00125 -0.010040625 0.00677021151179
39 1 -0.033665625 -0.00125 -0.008859375 0.0265746702639
40 1 -0.033665625 -0.00125 -0.007678125 0.00121423614113
41 1 -0.033665625 -0.00125 -0.006496875 1.23921880783e-05
42 1 -0.033665625 -0.00125 -0.005315625 3.68069486823e-09
43 1 -0.033665625 -0.00125 -0.004134375 0.00398734922761
44 1 -0.033665625 -0.00125 -0.002953125 0.0693524767005
45 1 -0.033665625 -0.00125 -0.001771875 0.235013451946
46 1 -0.033665625 -0.00125 -0.000590625 0.274779334457
47 1 -0.033665625 -0.00125 0.000590625 0.148841988951
48 1 -0.033665625 -0.00125 0.001771875 0.115731019618
49 1 -0.033665625 -0.00125 0.002953125 0.0102268708604
50 1 -0.033665625 -0.00125 0.004134375 3.69593165669e-11
51 1 -0.033665625 -0.00125 0.005315625 3.32251469239e-11
52 1 -0.033665625 -0.00125 0.006496875 1.1306811998e-08
53 1 -0.033665625 -0.00125 0.007678125 0.000397378030106
54 1 -0.033665625 -0.00125 0.008859375 0.0108711523736
55 1 -0.033665625 -0.00125 0.010040625 0.000606425636829
56 1 -0.033665625 -0.00125 0.011221875 0.000982505350251
57 1 -0.033665625 -0.00125 0.012403125 0.0140533333642
58 1 -0.033665625 -0.00125 0.013584375 1.65641405113e-05
59 1 -0.032484375 -0.00125 -0.018309375 0.000754296763367
60 1 -0.032484375 -0.00125 -0.017128125 0.00249698624982
61 1 -0.032484375 -0.00125 -0.015946875 0.00293714752636
62 1 -0.032484375 -0.00125 -0.014765625 0.000310049023223
63 1 -0.032484375 -0.00125 -0.013584375 2.18354163174e-05
64 1 -0.032484375 -0.00125 -0.012403125 0.0103685492314
65 1 -0.032484375 -0.00125 -0.011221875 0.00890843198139
66 1 -0.032484375 -0.00125 -0.010040625 0.00405999234634
67 1 -0.032484375 -0.00125 -0.008859375 0.0145071815406
68 1 -0.032484375 -0.00125 -0.007678125 0.000360695863087
69 1 -0.032484375 -0.00125 -0.006496875 1.78142055381e-07
70 1 -0.032484375 -0.00125 -0.005315625 1.27503126279e-09
71 1 -0.032484375 -0.00125 -0.004134375 0.000384210723222
72 1 -0.032484375 -0.00125 -0.002953125 0.0153978032616
73 1 -0.032484375 -0.00125 -0.001771875 0.0834234202147
74 1 -0.032484375 -0.00125 -0.000590625 0.166699563851
75 1 -0.032484375 -0.00125 0.000590625 0.13169728648
76 1 -0.032484375 -0.00125 0.001771875 0.0680381914477
77 1 -0.032484375 -0.00125 0.002953125 0.00590035089787
78 1 -0.032484375 -0.00125 0.004134375 1.86604677515e-07
79 1 -0.032484375 -0.00125 0.005315625 6.00371584342e-11
80 1 -0.032484375 -0.00125 0.006496875 1.66800847062e-12
81 1 -0.032484375 -0.00125 0.007678125 1.10577414435e-05
82 1 -0.032484375 -0.00125 0.008859375 0.00372432776541
83 1 -0.032484375 -0.00125 0.010040625 0.00223880541241
84 1 -0.032484375 -0.00125 0.011221875 0.00539123391887
85 1 -0.032484375 -0.00125 0.012403125 0.00230728978674
86 1 -0.032484375 -0.00125 0.013584375 3.54146957092e-08
87 1 -0.032484375 -0.00125 0.014765625 8.13377351712e-05
88 1 -0.032484375 -0.00125 0.015946875 0.000560039919376
89 1 -0.032484375 -0.00125 0.017128125 0.00119947438458
90 1 -0.032484375 -0.00125 0.018309375 0.000435863990305
91 1 -0.031303125 -0.00125 -0.019490625 0.000312436589068
92 1 -0.031303125 -0.00125 -0.018309375 0.00149412415098
93 1 -0.031303125 -0.00125 -0.017128125 0.00692276575705
94 1 -0.031303125 -0.00125 -0.015946875 0.00326865116509
95 1 -0.031303125 -0.00125 -0.014765625 0.00396661590801
96 1 -0.031303125 -0.00125 -0.013584375 0.000690237158795
97 1 -0.031303125 -0.00125 -0.012403125 0.00596582926221
98 1 -0.031303125 -0.00125 -0.011221875 0.00648564124523
99 1 -0.031303125 -0.00125 -0.010040625 0.00561749526178
100 1 -0.031303125 -0.00125 -0.008859375 0.000324240457478
101 1 -0.031303125 -0.00125 -0.007678125 9.10824919086e-06
102 1 -0.031303125 -0.00125 -0.006496875 9.53599529134e-07
103 1 -0.031303125 -0.00125 -0.005315625 1.50245468839e-06
104 1 -0.031303125 -0.00125 -0.004134375 3.05914262413e-06
105 1 -0.031303125 -0.00125 -0.002953125 0.000432273259234
106 1 -0.031303125 -0.00125 -0.001771875 0.0102817846841
107 1 -0.031303125 -0.00125 -0.000590625 0.0681513394708
108 1 -0.031303125 -0.00125 0.000590625 0.0632375499571
109 1 -0.031303125 -0.00125 0.001771875 0.00933464588172
110 1 -0.031303125 -0.00125 0.002953125 0.00150961192963
111 1 -0.031303125 -0.00125 0.004134375 6.69865943593e-05
112 1 -0.031303125 -0.00125 0.005315625 2.58323124147e-07
113 1 -0.031303125 -0.00125 0.006496875 6.10654981452e-11
114 1 -0.031303125 -0.00125 0.007678125 4.11565161891e-06
115 1 -0.031303125 -0.00125 0.008859375 8.34446895742e-05
116 1 -0.031303125 -0.00125 0.010040625 0.00011516182999
117 1 -0.031303125 -0.00125 0.011221875 0.000342960448244
118 1 -0.031303125 -0.00125 0.012403125 0.00179138321695
119 1 -0.031303125 -0.00125 0.013584375 7.44375835805e-05
120 1 -0.031303125 -0.00125 0.014765625 0.000205039763855
121 1 -0.031303125 -0.00125 0.015946875 0.000939266777651
122 1 -0.031303125 -0.00125 0.017128125 0.000495117771107
123 1 -0.031303125 -0.00125 0.018309375 0.000139301813373
124 1 -0.031303125 -0.00125 0.019490625 1.91425051252e-07
125 1 -0.030121875 -0.00125 -0.020671875 9.7946662061e-09
126 1 -0.030121875 -0.00125 -0.019490625 2.28054659003e-05
127 1 -0.030121875 -0.00125 -0.018309375 0.0016528487443
128 1 -0.030121875 -0.00125 -0.017128125 0.0116974333996
129 1 -0.030121875 -0.00125 -0.015946875 0.0158489583326
130 1 -0.030121875 -0.00125 -0.014765625 0.00657221277197
131 1 -0.030121875 -0.00125 -0.013584375 0.00334356973887
132 1 -0.030121875 -0.00125 -0.012403125 0.00134405804457
133 1 -0.030121875 -0.00125 -0.011221875 7.13256584401e-05
134 1 -0.030121875 -0.00125 -0.010040625 3.01793075629e-06
135 1 -0.030121875 -0.00125 -0.008859375 3.18866564526e-09
136 1 -0.030121875 -0.00125 -0.007678125 9.1065297555e-11
137 1 -0.030121875 -0.00125 -0.006496875 1.63713533915e-10
138 1 -0.030121875 -0.00125 -0.005315625 2.89166090219e-07
139 1 -0.030121875 -0.00125 -0.004134375 4.02329771706e-08
140 1 -0.030121875 -0.00125 -0.002953125 1.72509537812e-05
141 1 -0.030121875 -0.00125 -0.001771875 0.00483526851974
142 1 -0.030121875 -0.00125 -0.000590625 0.00653784963506
143 1 -0.030121875 -0.00125 0.000590625 0.00614106357338
144 1 -0.030121875 -0.00125 0.001771875 0.00175027636474
145 1 -0.030121875 -0.00125 0.002953125 0.000311018231774
146 1 -0.030121875 -0.00125 0.004134375 3.02331900952e-05
147 1 -0.030121875 -0.00125 0.005315625 4.59312720794e-06
148 1 -0.030121875 -0.00125 0.006496875 5.79364302682e-09
149 1 -0.030121875 -0.00125 0.007678125 5.79036096783e-08
150 1 -0.030121875 -0.00125 0.008859375 4.23193757916e-07
151 1 -0.030121875 -0.00125 0.010040625 1.19552980134e-05
152 1 -0.030121875 -0.00125 0.011221875 4.20326447264e-06
153 1 -0.030121875 -0.00125 0.012403125 0.00134054547455
154 1 -0.030121875 -0.00125 0.013584375 0.0024914938338
155 1 -0.030121875 -0.00125 0.014765625 0.00153112952127
156 1 -0.030121875 -0.00125 0.015946875 0.00224363711916
157 1 -0.030121875 -0.00125 0.017128125 0.00112922242518
158 1 -0.030121875 -0.00125 0.018309375 0.000206371993164
159 1 -0.030121875 -0.00125 0.019490625 1.10558889701e-07
160 1 -0.030121875 -0.00125 0.020671875 6.13965973323e-12
161 1 -0.028940625 -0.00125 -0.021853125 9.24594480768e-05
162 1 -0.028940625 -0.00125 -0.020671875 1.12392830574e-05
163 1 -0.028940625 -0.00125 -0.019490625 0.00017461452667
164 1 -0.028940625 -0.00125 -0.018309375 0.00249964137801
165 1 -0.028940625 -0.00125 -0.017128125 0.0159049612501
166 1 -0.028940625 -0.00125 -0.015946875 0.0186247429237
167 1 -0.028940625 -0.00125 -0.014765625 0.0166935226825
168 1 -0.028940625 -0.00125 -0.013584375 0.00093880726963
169 1 -0.028940625 -0.00125 -0.012403125 4.53521434756e-05
170 1 -0.028940625 -0.00125 -0.011221875 2.59384762569e-06
171 1 -0.028940625 -0.00125 -0.010040625 8.25871204391e-10
172 1 -0.028940625 -0.00125 -0.008859375 6.14035833582e-12
173 1 -0.028940625 -0.00125 -0.007678125 9.04966104551e-12
174 1 -0.028940625 -0.00125 -0.006496875 6.13779297903e-09
175 1 -0.028940625 -0.00125 -0.005315625 2.07690414226e-08
176 1 -0.028940625 -0.00125 -0.004134375 6.97187880307e-06
177 1 -0.028940625 -0.00125 -0.002953125 5.63520035461e-05
178 1 -0.028940625 -0.00125 -0.001771875 0.000480597751834
179 1 -0.028940625 -0.00125 -0.000590625 0.00403692652375
180 1 -0.028940625 -0.00125 0.000590625 0.000367635805557
181 1 -0.028940625 -0.00125 0.001771875 5.9639231446e-05
182 1 -0.028940625 -0.00125 0.002953125 4.54767213001e-05
183 1 -0.028940625 -0.00125 0.004134375 3.08229003602e-05
184 1 -0.028940625 -0.00125 0.005315625 1.65535385399e-06
185 1 -0.028940625 -0.00125 0.006496875 4.99459032226e-06
186 1 -0.028940625 -0.00125 0.007678125 1.17302989555e-08
187 1 -0.028940625 -0.00125 0.008859375 2.61562697571e-10
188 1 -0.028940625 -0.00125 0.010040625 4.03645275106e-08
189 1 -0.028940625 -0.00125 0.011221875 4.45758337638e-06
190 1 -0.028940625 -0.00125 0.012403125 0.000234151743031
191 1 -0.028940625 -0.00125 0.013584375 0.00229542260898
192 1 -0.028940625 -0.00125 0.014765625 0.00419989926754
193 1 -0.028940625 -0.00125 0.015946875 0.00482696086059
194 1 -0.028940625 -0.00125 0.017128125 0.00181813340845
195 1 -0.028940625 -0.00125 0.018309375 0.000878643945168
196 1 -0.028940625 -0.00125 0.019490625 2.05413716474e-07
197 1 -0.028940625 -0.00125 0.020671875 2.81106701312e-09
198 1 -0.028940625 -0.00125 0.021853125 1.29086460714e-06
199 1 -0.027759375 -0.00125 -0.024215625 1.13186491018e-06
200 1 -0.027759375 -0.00125 -0.023034375 6.6439086135e-06
201 1 -0.027759375 -0.00125 -0.021853125 0.000825044871398
202 1 -0.027759375 -0.00125 -0.020671875 1.2152236764e-06
203 1 -0.027759375 -0.00125 -0.019490625 2.89302549228e-05
204 1 -0.027759375 -0.00125 -0.018309375 0.00306536075099
205 1 -0.027759375 -0.00125 -0.017128125 0.0378979647575
206 1 -0.027759375 -0.00125 -0.015946875 0.0152455603642
207 1 -0.027759375 -0.00125 -0.014765625 0.00842050180715
208 1 -0.027759375 -0.00125 -0.013584375 0.000868088970402
209 1 -0.027759375 -0.00125 -0.012403125 6.88509474714e-05
210 1 -0.027759375 -0.00125 -0.011221875 1.13579428607e-07
211 1 -0.027759375 -0.00125 -0.010040625 4.38374432669e-11
212 1 -0.027759375 -0.00125 -0.008859375 2.65458818687e-13
213 1 -0.027759375 -0.00125 -0.007678125 1.17615981926e-10
214 1 -0.027759375 -0.00125 -0.006496875 2.87294900041e-08
215 1 -0.027759375 -0.00125 -0.005315625 1.25015626424e-05
216 1 -0.027759375 -0.00125 -0.004134375 0.000352767082881
217 1 -0.027759375 -0.00125 -0.002953125 0.000710982953912
218 1 -0.027759375 -0.00125 -0.001771875 0.00129151737992
219 1 -0.027759375 -0.00125 -0.000590625 0.0104253169176
220 1 -0.027759375 -0.00125 0.000590625 0.00399255478119
221 1 -0.027759375 -0.00125 0.001771875 0.00405015098213
222 1 -0.027759375 -0.00125 0.002953125 0.000382965736933
223 1 -0.027759375 -0.00125 0.004134375 1.29168754126e-05
224 1 -0.027759375 -0.00125 0.005315625 6.86270347568e-07
225 1 -0.027759375 -0.00125 0.006496875 2.07775752794e-06
226 1 -0.027759375 -0.00125 0.007678125 3.10392910569e-08
227 1 -0.027759375 -0.00125 0.008859375 2.59189955855e-07
228 1 -0.027759375 -0.00125 0.010040625 8.97064578525e-08
229 1 -0.027759375 -0.00125 0.011221875 4.53784829147e-06
230 1 -0.027759375 -0.00125 0.012403125 0.0010625990892
231 1 -0.027759375 -0.00125 0.013584375 0.0071542180246
232 1 -0.027759375 -0.00125 0.014765625 0.0298474995298
233 1 -0.027759375 -0.00125 0.015946875 0.00761683676704
234 1 -0.027759375 -0.00125 0.017128125 0.00631880484402
235 1 -0.027759375 -0.00125 0.018309375 0.000833697506792
236 1 -0.027759375 -0.00125 0.019490625 7.51234366903e-07
237 1 -0.027759375 -0.00125 0.020671875 6.20558338845e-08
238 1 -0.027759375 -0.00125 0.021853125 3.55508862665e-07
239 1 -0.027759375 -0.00125 0.023034375 6.3174845492e-09
240 1 -0.027759375 -0.00125 0.024215625 3.79084507841e-17
241 1 -0.026578125 -0.00125 -0.026578125 5.88941450752e-08
242 1 -0.026578125 -0.00125 -0.025396875 1.57255539121e-07
243 1 -0.026578125 -0.00125 -0.024215625 1.27615230125e-07
244 1 -0.026578125 -0.00125 -0.023034375 1.38794275858e-07
245 1 -0.026578125 -0.00125 -0.021853125 1.31112332233e-06
246 1 -0.026578125 -0.00125 -0.020671875 3.67936512277e-05
247 1 -0.026578125 -0.00125 -0.019490625 0.000559602591248
248 1 -0.026578125 -0.00125 -0.018309375 0.00550353069823
249 1 -0.026578125 -0.00125 -0.017128125 0.0379574839909
250 1 -0.026578125 -0.00125 -0.015946875 0.035325170777
251 1 -0.026578125 -0.00125 -0.014765625 0.00458691099262
252 1 -0.026578125 -0.00125 -0.013584375 0.00076505825615
253 1 -0.026578125 -0.00125 -0.012403125 1.96643250388e-06
254 1 -0.026578125 -0.00125 -0.011221875 9.57125371611e-08
255 1 -0.026578125 -0.00125 -0.010040625 6.1221103797e-12
256 1 -0.026578125 -0.00125 -0.008859375 3.92788955257e-10
257 1 -0.026578125 -0.00125 -0.007678125 2.23088338344e-09
258 1 -0.026578125 -0.00125 -0.006496875 5.14838404667e-06
259 1 -0.026578125 -0.00125 -0.005315625 0.00172077522985
260 1 -0.026578125 -0.00125 -0.004134375 0.00450887326732
261 1 -0.026578125 -0.00125 -0.002953125 0.0073330257234
262 1 -0.026578125 -0.00125 -0.001771875 0.0172613178943
263 1 -0.026578125 -0.00125 -0.000590625 0.0237149499438
264 1 -0.026578125 -0.00125 0.000590625 0.0218399812143
265 1 -0.026578125 -0.00125 0.001771875 0.0151702704617
266 1 -0.026578125 -0.00125 0.002953125 0.0137845400579
267 1 -0.026578125 -0.00125 0.004134375 0.000848969730956
268 1 -0.026578125 -0.00125 0.005315625 0.000287413697122
269 1 -0.026578125 -0.00125 0.006496875 2.75297257786e-08
270 1 -0.026578125 -0.00125 0.007678125 2.77632203926e-08
271 1 -0.026578125 -0.00125 0.008859375 4.56586597671e-07
272 1 -0.026578125 -0.00125 0.010040625 4.32295867384e-06
273 1 -0.026578125 -0.00125 0.011221875 8.49891350303e-05
274 1 -0.026578125 -0.00125 0.012403125 0.000580006511742
275 1 -0.026578125 -0.00125 0.013584375 0.0116061993272
276 1 -0.026578125 -0.00125 0.014765625 0.0218200629699
277 1 -0.026578125 -0.00125 0.015946875 0.0564673044979
278 1 -0.026578125 -0.00125 0.017128125 0.0395502416049
279 1 -0.026578125 -0.00125 0.018309375 0.00679301764385
280 1 -0.026578125 -0.00125 0.019490625 3.47750881911e-05
281 1 -0.026578125 -0.00125 0.020671875 2.34458896616e-06
282 1 -0.026578125 -0.00125 0.021853125 1.13702037769e-07
283 1 -0.026578125 -0.00125 0.023034375 8.22187135322e-13
284 1 -0.026578125 -0.00125 0.024215625 2.2293881259e-12
285 1 -0.026578125 -0.00125 0.025396875 5.45076817095e-10
286 1 -0.026578125 -0.00125 0.026578125 1.14554781814e-10
287 1 -0.025396875 -0.00125 -0.026578125 5.45730593972e-13
288 1 -0.025396875 -0.00125 -0.025396875 3.12167843225e-06
289 1 -0.025396875 -0.00125 -0.024215625 2.50536518163e-05
290 1 -0.025396875 -0.00125 -0.023034375 5.47714152715e-06
291 1 -0.025396875 -0.00125 -0.021853125 3.47472699633e-05
292 1 -0.025396875 -0.00125 -0.020671875 0.000531131533609
293 1 -0.025396875 -0.00125 -0.019490625 0.00135733609373
294 1 -0.025396875 -0.00125 -0.018309375 0.0225714090221
295 1 -0.025396875 -0.00125 -0.017128125 0.0430352544008
296 1 -0.025396875 -0.00125 -0.015946875 0.0378237202076
297 1 -0.025396875 -0.00125 -0.014765625 0.0213848591224
298 1 -0.025396875 -0.00125 -0.013584375 0.00514049243596
299 1 -0.025396875 -0.00125 -0.012403125 3.27487960795e-05
300 1 -0.025396875 -0.00125 -0.011221875 6.69684652459e-05
301 1 -0.025396875 -0.00125 -0.010040625 5.53705934112e-06
302 1 -0.025396875 -0.00125 -0.008859375 1.29067870569e-06
303 1 -0.025396875 -0.00125 -0.007678125 8.35502821136e-09
304 1 -0.025396875 -0.00125 -0.006496875 0.000434036594443
305 1 -0.025396875 -0.00125 -0.005315625 0.0105359762909
306 1 -0.025396875 -0.00125 -0.004134375 0.00764412608518
307 1 -0.025396875 -0.00125 -0.002953125 0.00476170538423
308 1 -0.025396875 -0.00125 -0.001771875 0.00572607206376
309 1 -0.025396875 -0.00125 -0.000590625 0.0108980555042
310 1 -0.025396875 -0.00125 0.000590625 0.0132459050998
311 1 -0.025396875 -0.00125 0.001771875 0.0161862897181
312 1 -0.025396875 -0.00125 0.002953125 0.00432766067858
313 1 -0.025396875 -0.00125 0.004134375 0.00135032325399
314 1 -0.025396875 -0.00125 0.005315625 0.00267118757741
315 1 -0.025396875 -0.00125 0.006496875 0.000541692869266
316 1 -0.025396875 -0.00125 0.007678125 0.000167391516347
317 1 -0.025396875 -0.00125 0.008859375 7.47755110479e-05
318 1 -0.025396875 -0.00125 0.010040625 1.01252146768e-06
319 1 -0.025396875 -0.00125 0.011221875 1.05925323918e-06
320 1 -0.025396875 -0.00125 0.012403125 0.000109244921262
321 1 -0.025396875 -0.00125 0.013584375 0.0046455317953
322 1 -0.025396875 -0.00125 0.014765625 0.0195623235897
323 1 -0.025396875 -0.00125 0.015946875 0.058350153879
324 1 -0.025396875 -0.00125 0.017128125 0.0375554334089
325 1 -0.025396875 -0.00125 0.018309375 0.00609966632868
326 1 -0.025396875 -0.00125 0.019490625 8.21757433279e-05
327 1 -0.025396875 -0.00125 0.020671875 2.96486950314e-05
328 1 -0.025396875 -0.00125 0.021853125 5.64427354574e-06
329 1 -0.025396875 -0.00125 0.023034375 3.4123717992e-06
330 1 -0.025396875 -0.00125 0.024215625 1.57023889402e-07
331 1 -0.025396875 -0.00125 0.025396875 6.58007174169e-06
332 1 -0.025396875 -0.00125 0.026578125 3.09689508193e-19
333 1 -0.024215625 -0.00125 -0.027759375 5.20679161444e-09
334 1 -0.024215625 -0.00125 -0.026578125 7.12721736854e-07
335 1 -0.024215625 -0.00125 -0.025396875 2.24588897763e-05
336 1 -0.024215625 -0.00125 -0.024215625 0.00149324134425
337 1 -0.024215625 -0.00125 -0.023034375 0.00260360941006
338 1 -0.024215625 -0.00125 -0.021853125 0.00133685664346
339 1 -0.024215625 -0.00125 -0.020671875 0.00200162550701
340 1 -0.024215625 -0.00125 -0.019490625 0.00541252903881
341 1 -0.024215625 -0.00125 -0.018309375 0.00650769470252
342 1 -0.024215625 -0.00125 -0.017128125 0.032610835622
343 1 -0.024215625 -0.00125 -0.015946875 0.059328774785
344 1 -0.024215625 -0.00125 -0.014765625 0.0402758203798
345 1 -0.024215625 -0.00125 -0.013584375 0.00392725655097
346 1 -0.024215625 -0.00125 -0.012403125 5.99966198674e-05
347 1 -0.024215625 -0.00125 -0.011221875 5.97830156056e-05
348 1 -0.024215625 -0.00125 -0.010040625 0.000113657503183
349 1 -0.024215625 -0.00125 -0.008859375 8.61838035555e-05
350 1 -0.024215625 -0.00125 -0.007678125 4.82676022988e-07
351 1 -0.024215625 -0.00125 -0.006496875 0.000105067454613
352 1 -0.024215625 -0.00125 -0.005315625 0.00671494098821
353 1 -0.024215625 -0.00125 -0.004134375 0.00297862333633
354 1 -0.024215625 -0.00125 -0.002953125 0.00410017524027
355 1 -0.024215625 -0.00125 -0.001771875 0.00524059805646
356 1 -0.024215625 -0.00125 -0.000590625 0.00886832792137
357 1 -0.024215625 -0.00125 0.000590625 0.00844280383183
358 1 -0.024215625 -0.00125 0.001771875 0.00725544655487
359 1 -0.024215625 -0.00125 0.002953125 0.000541432778298
360 1 -0.024215625 -0.00125 0.004134375 0.00108930995649
361 1 -0.024215625 -0.00125 0.005315625 0.00126450067749
362 1 -0.024215625 -0.00125 0.006496875 0.00106488081423
363 1 -0.024215625 -0.00125 0.007678125 0.000511691805666
364 1 -0.024215625 -0.00125 0.008859375 0.000225225773086
365 1 -0.024215625 -0.00125 0.010040625 0.000523985369546
366 1 -0.024215625 -0.00125 0.011221875 8.74273849775e-05
367 1 -0.024215625 -0.00125 0.012403125 0.000809248437803
368 1 -0.024215625 -0.00125 0.013584375 0.00619633137411
369 1 -0.024215625 -0.00125 0.014765625 0.0242876475213
370 1 -0.024215625 -0.00125 0.015946875 0.053905980878
371 1 -0.024215625 -0.00125 0.017128125 0.0351760502253
372 1 -0.024215625 -0.00125 0.018309375 0.00854770187914
373 1 -0.024215625 -0.00125 0.019490625 0.000927459466403
374 1 -0.024215625 -0.00125 0.020671875 0.000398391903102
375 1 -0.024215625 -0.00125 0.021853125 0.000368201620459
376 1 -0.024215625 -0.00125 0.023034375 2.67715256226e-05
377 1 -0.024215625 -0.00125 0.024215625 3.92596148408e-07
378 1 -0.024215625 -0.00125 0.025396875 2.30102013918e-06
379 1 -0.024215625 -0.00125 0.026578125 2.75988905226e-09
380 1 -0.024215625 -0.00125 0.027759375 1.3147255001e-12
381 1 -0.023034375 -0.00125 -0.027759375 1.54669748892e-10
382 1 -0.023034375 -0.00125 -0.026578125 1.30154895416e-06
383 1 -0.023034375 -0.00125 -0.025396875 0.000751139993442
384 1 -0.023034375 -0.00125 -0.024215625 0.000728673295457
385 1 -0.023034375 -0.00125 -0.023034375 0.00663013720993
386 1 -0.023034375 -0.00125 -0.021853125 0.000810456708998
387 1 -0.023034375 -0.00125 -0.020671875 0.00400061822972
388 1 -0.023034375 -0.00125 -0.019490625 0.00542072904891
389 1 -0.023034375 -0.00125 -0.018309375 0.0167421996691
390 1 -0.023034375 -0.00125 -0.017128125 0.0392577328056
391 1 -0.023034375 -0.00125 -0.015946875 0.0745141258011
392 1 -0.023034375 -0.00125 -0.014765625 0.0359203496851
393 1 -0.023034375 -0.00125 -0.013584375 0.0175710595162
394 1 -0.023034375 -0.00125 -0.012403125 0.000784881728569
395 1 -0.023034375 -0.00125 -0.011221875 0.000638544919769
396 1 -0.023034375 -0.00125 -0.010040625 0.00218845383101
397 1 -0.023034375 -0.00125 -0.008859375 0.000422552092323
398 1 -0.023034375 -0.00125 -0.007678125 0.000357604597169
399 1 -0.023034375 -0.00125 -0.006496875 0.0012910085281
400 1 -0.023034375 -0.00125 -0.005315625 0.0153081772003
401 1 -0.023034375 -0.00125 -0.004134375 0.00838251648829
402 1 -0.023034375 -0.00125 -0.002953125 0.0170962906912
403 1 -0.023034375 -0.00125 -0.001771875 0.0142593249427
404 1 -0.023034375 -0.00125 -0.000590625 0.0155163083995
405 1 -0.023034375 -0.00125 0.000590625 0.0200820753731
406 1 -0.023034375 -0.00125 0.001771875 0.0150359659794
407 1 -0.023034375 -0.00125 0.002953125 0.0148912516937
408 1 -0.023034375 -0.00125 0.004134375 0.00978043414646
409 1 -0.023034375 -0.00125 0.005315625 0.0112083669999
410 1 -0.023034375 -0.00125 0.006496875 0.00636050286861
411 1 -0.023034375 -0.00125 0.007678125 0.00269128888429
412 1 -0.023034375 -0.00125 0.008859375 0.00293128421972
413 1 -0.023034375 -0.00125 0.010040625 0.00204899592538
414 1 -0.023034375 -0.00125 0.011221875 0.0011912712005
415 1 -0.023034375 -0.00125 0.012403125 0.00432728987706
416 1 -0.023034375 -0.00125 0.013584375 0.0261488550117
417 1 -0.023034375 -0.00125 0.014765625 0.0670884983618
418 1 -0.023034375 -0.00125 0.015946875 0.071609201344
419 1 -0.023034375 -0.00125 0.017128125 0.0278508347632
420 1 -0.023034375 -0.00125 0.018309375 0.00910121183874
421 1 -0.023034375 -0.00125 0.019490625 0.00121185794897
422 1 -0.023034375 -0.00125 0.020671875 0.00209717252434
423 1 -0.023034375 -0.00125 0.021853125 0.00470294743854
424 1 -0.023034375 -0.00125 0.023034375 0.000963364644287
425 1 -0.023034375 -0.00125 0.024215625 0.000174307909495
426 1 -0.023034375 -0.00125 0.025396875 0.000125556717124
427 1 -0.023034375 -0.00125 0.026578125 3.19727163604e-07
428 1 -0.023034375 -0.00125 0.027759375 1.45869557243e-07
429 1 -0.021853125 -0.00125 -0.028940625 1.98095215395e-05
430 1 -0.021853125 -0.00125 -0.027759375 5.79968466678e-06
431 1 -0.021853125 -0.00125 -0.026578125 1.67082652066e-07
432 1 -0.021853125 -0.00125 -0.025396875 6.93265659645e-05
433 1 -0.021853125 -0.00125 -0.024215625 0.00161890790325
434 1 -0.021853125 -0.00125 -0.023034375 0.000895112489655
435 1 -0.021853125 -0.00125 -0.021853125 0.00454662173038
436 1 -0.021853125 -0.00125 -0.020671875 0.00818552229181
437 1 -0.021853125 -0.00125 -0.019490625 0.0126569160766
438 1 -0.021853125 -0.00125 -0.018309375 0.0246520838382
439 1 -0.021853125 -0.00125 -0.017128125 0.0359506227775
440 1 -0.021853125 -0.00125 -0.015946875 0.0640948418569
441 1 -0.021853125 -0.00125 -0.014765625 0.0599857717267
442 1 -0.021853125 -0.00125 -0.013584375 0.0269278406689
443 1 -0.021853125 -0.00125 -0.012403125 0.0112999966972
444 1 -0.021853125 -0.00125 -0.011221875 0.00782443344894
445 1 -0.021853125 -0.00125 -0.010040625 0.00764689334451
446 1 -0.021853125 -0.00125 -0.008859375 0.00457112088344
447 1 -0.021853125 -0.00125 -0.007678125 0.0136058309392
448 1 -0.021853125 -0.00125 -0.006496875 0.0133855070056
449 1 -0.021853125 -0.00125 -0.005315625 0.0428712534681
450 1 -0.021853125 -0.00125 -0.004134375 0.0677129663155
451 1 -0.021853125 -0.00125 -0.002953125 0.0830918188715
452 1 -0.021853125 -0.00125 -0.001771875 0.0553007000629
453 1 -0.021853125 -0.00125 -0.000590625 0.0241040401529
454 1 -0.021853125 -0.00125 0.000590625 0.0289371065013
455 1 -0.021853125 -0.00125 0.001771875 0.0285870233869
456 1 -0.021853125 -0.00125 0.002953125 0.063572118528
457 1 -0.021853125 -0.00125 0.004134375 0.0610541376732
458 1 -0.021853125 -0.00125 0.005315625 0.0295909555091
459 1 -0.021853125 -0.00125 0.006496875 0.00762027702095
460 1 -0.021853125 -0.00125 0.007678125 0.0106710283164
461 1 -0.021853125 -0.00125 0.008859375 0.0112376858662
462 1 -0.021853125 -0.00125 0.010040625 0.0101851425977
463 1 -0.021853125 -0.00125 0.011221875 0.0140367413215
464 1 -0.021853125 -0.00125 0.012403125 0.034445205728
465 1 -0.021853125 -0.00125 0.013584375 0.0617164527185
466 1 -0.021853125 -0.00125 0.014765625 0.0797128685905
467 1 -0.021853125 -0.00125 0.015946875 0.111735195526
468 1 -0.021853125 -0.00125 0.017128125 0.048314920569
469 1 -0.021853125 -0.00125 0.018309375 0.0110975663928
470 1 -0.021853125 -0.00125 0.019490625 0.00577326226445
471 1 -0.021853125 -0.00125 0.020671875 0.00166609669001
472 1 -0.021853125 -0.00125 0.021853125 0.00319537309351
473 1 -0.021853125 -0.00125 0.023034375 0.00268656933571
474 1 -0.021853125 -0.00125 0.024215625 0.000264942632997
475 1 -0.021853125 -0.00125 0.025396875 9.28256137947e-06
476 1 -0.021853125 -0.00125 0.026578125 4.22071082793e-07
477 1 -0.021853125 -0.00125 0.027759375 3.63846602522e-05
478 1 -0.021853125 -0.00125 0.028940625 3.4820102968e-05
479 1 -0.020671875 -0.00125 -0.030121875 7.55277654277e-06
480 1 -0.020671875 -0.00125 -0.028940625 3.41266052627e-06
481 1 -0.020671875 -0.00125 -0.027759375 5.03602481751e-06
482 1 -0.020671875 -0.00125 -0.026578125 1.26918216905e-05
483 1 -0.020671875 -0.00125 -0.025396875 9.07780426593e-05
484 1 -0.020671875 -0.00125 -0.024215625 0.000637114064142
485 1 -0.020671875 -0.00125 -0.023034375 0.00213853537943
486 1 -0.020671875 -0.00125 -0.021853125 0.00485898071881
487 1 -0.020671875 -0.00125 -0.020671875 0.0148870743268
488 1 -0.020671875 -0.00125 -0.019490625 0.0429880514106
489 1 -0.020671875 -0.00125 -0.018309375 0.030197676518
490 1 -0.020671875 -0.00125 -0.017128125 0.0595126056673
491 1 -0.020671875 -0.00125 -0.015946875 0.106263828204
492 1 -0.020671875 -0.00125 -0.014765625 0.113937915961
493 1 -0.020671875 -0.00125 -0.013584375 0.0826766721873
494 1 -0.020671875 -0.00125 -0.012403125 0.0421776112253
495 1 -0.020671875 -0.00125 -0.011221875 0.0405602553073
496 1 -0.020671875 -0.00125 -0.010040625 0.0312576010354
497 1 -0.020671875 -0.00125 -0.008859375 0.0146406020816
498 1 -0.020671875 -0.00125 -0.007678125 0.0260856322728
499 1 -0.020671875 -0.00125 -0.006496875 0.0395448349327
500 1 -0.020671875 -0.00125 -0.005315625 0.0793917406607
501 1 -0.020671875 -0.00125 -0.004134375 0.149276689972
502 1 -0.020671875 -0.00125 -0.002953125 0.147816591592
503 1 -0.020671875 -0.00125 -0.001771875 0.115611215209
504 1 -0.020671875 -0.00125 -0.000590625 0.0699825538338
505 1 -0.020671875 -0.00125 0.000590625 0.0652200675849
506 1 -0.020671875 -0.00125 0.001771875 0.0848272926252
507 1 -0.020671875 -0.00125 0.002953125 0.10408271819
508 1 -0.020671875 -0.00125 0.004134375 0.107466071453
509 1 -0.020671875 -0.00125 0.005315625 0.0510080510187
510 1 -0.020671875 -0.00125 0.006496875 0.0437553906829
511 1 -0.020671875 -0.00125 0.007678125 0.0440755345323
512 1 -0.020671875 -0.00125 0.008859375 0.0415507222997
513 1 -0.020671875 -0.00125 0.010040625 0.033475430208
514 1 -0.020671875 -0.00125 0.011221875 0.0676525316749
515 1 -0.020671875 -0.00125 0.012403125 0.10052803125
516 1 -0.020671875 -0.00125 0.013584375 0.14397869132
517 1 -0.020671875 -0.00125 0.014765625 0.137839433194