ITEM: TIMESTEP
0
ITEM: NUMBER OF ATOMS
3080
ITEM: BOX BOUNDS ss ss ss
-3.7007399999999996e-02 3.7007399999999996e-02
-2.0002499999999999e-03 2.5000000000000004e-07
-3.7007399999999996e-02 3.7007399999999996e-02
ITEM: ATOMS id type x y z c_1
0 1 -0.037209375 -0.00125 -0.000590625 0.98153656265
1 1 -0.036028125 -0.00125 -0.007678125 6.40620235532e-15
2 1 -0.036028125 -0.00125 -0.006496875 5.53495339332e-23
3 1 -0.036028125 -0.00125 -0.005315625 6.94655917797e-40
4 1 -0.036028125 -0.00125 -0.004134375 1.93354700685e-27
5 1 -0.036028125 -0.00125 -0.002953125 0.000122796507965
6 1 -0.036028125 -0.00125 -0.001771875 0.0120027755473
7 1 -0.036028125 -0.00125 -0.000590625 0.0174031240717
8 1 -0.036028125 -0.00125 0.000590625 4.64447680264e-06
9 1 -0.036028125 -0.00125 0.001771875 0.00019080480298
10 1 -0.036028125 -0.00125 0.002953125 8.0390740096e-17
11 1 -0.036028125 -0.00125 0.004134375 2.64220265681e-38
12 1 -0.036028125 -0.00125 0.005315625 6.80017420945e-56
13 1 -0.036028125 -0.00125 0.006496875 1.16667024174e-25
14 1 -0.036028125 -0.00125 0.007678125 2.99925876871e-22
15 1 -0.034846875 -0.00125 -0.011221875 0.00191240558817
16 1 -0.034846875 -0.00125 -0.010040625 1.2997777449e-06
17 1 -0.034846875 -0.00125 -0.008859375 0.000334373506205
18 1 -0.034846875 -0.00125 -0.007678125 9.88748606739e-20
19 1 -0.034846875 -0.00125 -0.006496875 3.59610720454e-26
20 1 -0.034846875 -0.00125 -0.005315625 1.06033540766e-53
21 1 -0.034846875 -0.00125 -0.004134375 3.53107769442e-38
22 1 -0.034846875 -0.00125 -0.002953125 6.26638523088e-07
23 1 -0.034846875 -0.00125 -0.001771875 0.00733770960038
24 1 -0.034846875 -0.00125 -0.000590625 0.00224875490361
25 1 -0.034846875 -0.00125 0.000590625 4.62316348759e-06
26 1 -0.034846875 -0.00125 0.001771875 1.44799924644e-08
27 1 -0.034846875 -0.00125 0.002953125 2.38861558988e-18
28 1 -0.034846875 -0.00125 0.004134375 1.3479980331e-58
29 1 -0.034846875 -0.00125 0.005315625 2.49567068883e-81
30 1 -0.034846875 -0.00125 0.006496875 4.522727565e-64
31 1 -0.034846875 -0.00125 0.007678125 2.00265200442e-28
32 1 -0.034846875 -0.00125 0.008859375 2.71050206258e-06
33 1 -0.034846875 -0.00125 0.010040625 1.53620676847e-14
34 1 -0.034846875 -0.00125 0.011221875 2.20047066201e-09
35 1 -0.033665625 -0.00125 -0.013584375 2.03194109681e-09
36 1 -0.033665625 -0.00125 -0.012403125 0.0234616917834
37 1 -0.033665625 -0.00125 -0.011221875 0.00300368397266
38 1 -0.033665625 -0.00125 -0.010040625 1.10414820937e-05
39 1 -0.033665625 -0.00125 -0.008859375 3.13644475571e-06
40 1 -0.033665625 -0.00125 -0.007678125 1.07734556876e-14
41 1 -0.033665625 -0.00125 -0.006496875 4.53915624443e-34
42 1 -0.033665625 -0.00125 -0.005315625 1.8365465405e-60
43 1 -0.033665625 -0.00125 -0.004134375 3.56828401872e-15
44 1 -0.033665625 -0.00125 -0.002953125 2.6914997325e-08
45 1 -0.033665625 -0.00125 -0.001771875 0.000291659882382
46 1 -0.033665625 -0.00125 -0.000590625 0.00165148110171
47 1 -0.033665625 -0.00125 0.000590625 6.36579372727e-06
48 1 -0.033665625 -0.00125 0.001771875 6.31813878959e-08
49 1 -0.033665625 -0.00125 0.002953125 5.45718838417e-15
50 1 -0.033665625 -0.00125 0.004134375 1.30902032638e-76
51 1 -0.033665625 -0.00125 0.005315625 4.40950575867e-70
52 1 -0.033665625 -0.00125 0.006496875 5.98025280528e-42
53 1 -0.033665625 -0.00125 0.007678125 2.18086614873e-17
54 1 -0.033665625 -0.00125 0.008859375 3.14754749665e-08
55 1 -0.033665625 -0.00125 0.010040625 1.86899508418e-11
56 1 -0.033665625 -0.00125 0.011221875 3.01803212827e-11
57 1 -0.033665625 -0.00125 0.012403125 3.46866748181e-06
58 1 -0.033665625 -0.00125 0.013584375 1.48280773261e-19
59 1 -0.032484375 -0.00125 -0.018309375 3.69324982663e-07
60 1 -0.032484375 -0.00125 -0.017128125 1.27370935204e-07
61 1 -0.032484375 -0.00125 -0.015946875 0.000286854918764
62 1 -0.032484375 -0.00125 -0.014765625 4.55794806827e-09
63 1 -0.032484375 -0.00125 -0.013584375 3.66641295942e-13
64 1 -0.032484375 -0.00125 -0.012403125 0.000940150466242
65 1 -0.032484375 -0.00125 -0.011221875 0.000576890552149
66 1 -0.032484375 -0.00125 -0.010040625 7.19090076346e-07
67 1 -0.032484375 -0.00125 -0.008859375 1.11806074728e-06
68 1 -0.032484375 -0.00125 -0.007678125 5.15085341906e-09
69 1 -0.032484375 -0.00125 -0.006496875 1.29463717869e-21
70 1 -0.032484375 -0.00125 -0.005315625 2.7983389137e-30
71 1 -0.032484375 -0.00125 -0.004134375 4.69031414703e-16
72 1 -0.032484375 -0.00125 -0.002953125 5.03168505341e-10
73 1 -0.032484375 -0.00125 -0.001771875 4.78015583511e-07
74 1 -0.032484375 -0.00125 -0.000590625 6.35616898394e-06
75 1 -0.032484375 -0.00125 0.000590625 1.85363406313e-07
76 1 -0.032484375 -0.00125 0.001771875 2.74047362421e-05
77 1 -0.032484375 -0.00125 0.002953125 8.76485742828e-16
78 1 -0.032484375 -0.00125 0.004134375 6.24292295705e-43
79 1 -0.032484375 -0.00125 0.005315625 5.71807672401e-49
80 1 -0.032484375 -0.00125 0.006496875 4.94810676695e-54
81 1 -0.032484375 -0.00125 0.007678125 4.99761319948e-24
82 1 -0.032484375 -0.00125 0.008859375 6.42828902497e-11
83 1 -0.032484375 -0.00125 0.010040625 1.04948950591e-11
84 1 -0.032484375 -0.00125 0.011221875 8.58828169009e-09
85 1 -0.032484375 -0.00125 0.012403125 8.08887709184e-13
86 1 -0.032484375 -0.00125 0.013584375 1.7360970858e-50
87 1 -0.032484375 -0.00125 0.014765625 4.55303114407e-16
88 1 -0.032484375 -0.00125 0.015946875 1.49984506981e-09
89 1 -0.032484375 -0.00125 0.017128125 1.15631625558e-09
90 1 -0.032484375 -0.00125 0.018309375 5.82565876579e-16
91 1 -0.031303125 -0.00125 -0.019490625 9.20293759566e-09
92 1 -0.031303125 -0.00125 -0.018309375 1.60690596207e-06
93 1 -0.031303125 -0.00125 -0.017128125 1.55412728686e-05
94 1 -0.031303125 -0.00125 -0.015946875 6.92186126769e-07
95 1 -0.031303125 -0.00125 -0.014765625 1.6208078003e-06
96 1 -0.031303125 -0.00125 -0.013584375 3.30726803777e-07
97 1 -0.031303125 -0.00125 -0.012403125 4.20905682568e-05
98 1 -0.031303125 -0.00125 -0.011221875 4.81345881505e-05
99 1 -0.031303125 -0.00125 -0.010040625 1.90510214849e-06
100 1 -0.031303125 -0.00125 -0.008859375 5.49990761934e-10
101 1 -0.031303125 -0.00125 -0.007678125 1.05778756115e-11
102 1 -0.031303125 -0.00125 -0.006496875 1.72125349565e-13
103 1 -0.031303125 -0.00125 -0.005315625 2.09074096854e-14
104 1 -0.031303125 -0.00125 -0.004134375 2.30144442337e-18
105 1 -0.031303125 -0.00125 -0.002953125 2.91968374093e-11
106 1 -0.031303125 -0.00125 -0.001771875 2.24568420696e-08
107 1 -0.031303125 -0.00125 -0.000590625 1.09720508657e-05
108 1 -0.031303125 -0.00125 0.000590625 3.49872812433e-06
109 1 -0.031303125 -0.00125 0.001771875 3.98187154294e-08
110 1 -0.031303125 -0.00125 0.002953125 1.01013762186e-11
111 1 -0.031303125 -0.00125 0.004134375 2.65453583688e-13
112 1 -0.031303125 -0.00125 0.005315625 1.65453970785e-19
113 1 -0.031303125 -0.00125 0.006496875 8.15781252351e-29
114 1 -0.031303125 -0.00125 0.007678125 1.38418747024e-18
115 1 -0.031303125 -0.00125 0.008859375 5.19073508639e-18
116 1 -0.031303125 -0.00125 0.010040625 3.49699652686e-18
117 1 -0.031303125 -0.00125 0.011221875 6.60156469239e-13
118 1 -0.031303125 -0.00125 0.012403125 1.07087106562e-08
119 1 -0.031303125 -0.00125 0.013584375 1.43464565861e-17
120 1 -0.031303125 -0.00125 0.014765625 6.27466652017e-13
121 1 -0.031303125 -0.00125 0.015946875 4.11819228087e-09
122 1 -0.031303125 -0.00125 0.017128125 2.43162652105e-15
123 1 -0.031303125 -0.00125 0.018309375 4.18596471841e-16
124 1 -0.031303125 -0.00125 0.019490625 2.23874721648e-26
125 1 -0.030121875 -0.00125 -0.020671875 7.63863353124e-17
126 1 -0.030121875 -0.00125 -0.019490625 7.14614915606e-09
127 1 -0.030121875 -0.00125 -0.018309375 2.80871978798e-06
128 1 -0.030121875 -0.00125 -0.017128125 2.55429547095e-05
129 1 -0.030121875 -0.00125 -0.015946875 1.48464390232e-06
130 1 -0.030121875 -0.00125 -0.014765625 3.33153902718e-08
131 1 -0.030121875 -0.00125 -0.013584375 1.68284228391e-09
132 1 -0.030121875 -0.00125 -0.012403125 8.5923625584e-07
133 1 -0.030121875 -0.00125 -0.011221875 2.18762921043e-08
134 1 -0.030121875 -0.00125 -0.010040625 1.40266955409e-13
135 1 -0.030121875 -0.00125 -0.008859375 3.56781886159e-16
136 1 -0.030121875 -0.00125 -0.007678125 1.27285822464e-15
137 1 -0.030121875 -0.00125 -0.006496875 1.58581883956e-18
138 1 -0.030121875 -0.00125 -0.005315625 7.76316670143e-11
139 1 -0.030121875 -0.00125 -0.004134375 3.78546196547e-30
140 1 -0.030121875 -0.00125 -0.002953125 1.29821665118e-10
141 1 -0.030121875 -0.00125 -0.001771875 3.94539989067e-11
142 1 -0.030121875 -0.00125 -0.000590625 3.68451289864e-11
143 1 -0.030121875 -0.00125 0.000590625 7.70843125992e-09
144 1 -0.030121875 -0.00125 0.001771875 1.95319056682e-08
145 1 -0.030121875 -0.00125 0.002953125 1.89470047495e-09
146 1 -0.030121875 -0.00125 0.004134375 9.20855439758e-12
147 1 -0.030121875 -0.00125 0.005315625 4.40128811949e-15
148 1 -0.030121875 -0.00125 0.006496875 1.01759368664e-25
149 1 -0.030121875 -0.00125 0.007678125 9.78100179772e-24
150 1 -0.030121875 -0.00125 0.008859375 3.22294046184e-26
151 1 -0.030121875 -0.00125 0.010040625 2.00231840236e-14
152 1 -0.030121875 -0.00125 0.011221875 1.02245021481e-18
153 1 -0.030121875 -0.00125 0.012403125 4.5060412267e-09
154 1 -0.030121875 -0.00125 0.013584375 9.64175805673e-09
155 1 -0.030121875 -0.00125 0.014765625 3.99677515133e-10
156 1 -0.030121875 -0.00125 0.015946875 5.80619127245e-11
157 1 -0.030121875 -0.00125 0.017128125 1.00725122712e-12
158 1 -0.030121875 -0.00125 0.018309375 1.18489773734e-17
159 1 -0.030121875 -0.00125 0.019490625 5.84610833997e-34
160 1 -0.030121875 -0.00125 0.020671875 1.31270376541e-55
161 1 -0.028940625 -0.00125 -0.021853125 0.00197487985062
162 1 -0.028940625 -0.00125 -0.020671875 1.00339652128e-05
163 1 -0.028940625 -0.00125 -0.019490625 1.98406794562e-05
164 1 -0.028940625 -0.00125 -0.018309375 9.98984737841e-07
165 1 -0.028940625 -0.00125 -0.017128125 1.0118900413e-06
166 1 -0.028940625 -0.00125 -0.015946875 2.72546515458e-06
167 1 -0.028940625 -0.00125 -0.014765625 6.85349465323e-07
168 1 -0.028940625 -0.00125 -0.013584375 1.40033383908e-10
169 1 -0.028940625 -0.00125 -0.012403125 2.18150655738e-15
170 1 -0.028940625 -0.00125 -0.011221875 2.91956852666e-15
171 1 -0.028940625 -0.00125 -0.010040625 2.70927018568e-15
172 1 -0.028940625 -0.00125 -0.008859375 7.15548756622e-18
173 1 -0.028940625 -0.00125 -0.007678125 8.51782825758e-15
174 1 -0.028940625 -0.00125 -0.006496875 8.67150769857e-11
175 1 -0.028940625 -0.00125 -0.005315625 1.96354963026e-10
176 1 -0.028940625 -0.00125 -0.004134375 4.82406642573e-09
177 1 -0.028940625 -0.00125 -0.002953125 3.37389217041e-09
178 1 -0.028940625 -0.00125 -0.001771875 6.94252428325e-09
179 1 -0.028940625 -0.00125 -0.000590625 2.37441967352e-08
180 1 -0.028940625 -0.00125 0.000590625 2.56086680523e-08
181 1 -0.028940625 -0.00125 0.001771875 4.1626501922e-08
182 1 -0.028940625 -0.00125 0.002953125 2.15857445425e-08
183 1 -0.028940625 -0.00125 0.004134375 1.12817926962e-10
184 1 -0.028940625 -0.00125 0.005315625 3.23206021726e-17
185 1 -0.028940625 -0.00125 0.006496875 3.27275321724e-13
186 1 -0.028940625 -0.00125 0.007678125 9.2058678248e-22
187 1 -0.028940625 -0.00125 0.008859375 1.743040548e-26
188 1 -0.028940625 -0.00125 0.010040625 9.69873546475e-22
189 1 -0.028940625 -0.00125 0.011221875 8.01774295524e-15
190 1 -0.028940625 -0.00125 0.012403125 1.87937880109e-13
191 1 -0.028940625 -0.00125 0.013584375 1.09350684948e-10
192 1 -0.028940625 -0.00125 0.014765625 4.77096135948e-10
193 1 -0.028940625 -0.00125 0.015946875 4.04956226786e-08
194 1 -0.028940625 -0.00125 0.017128125 6.16013276707e-10
195 1 -0.028940625 -0.00125 0.018309375 2.98210311716e-15
196 1 -0.028940625 -0.00125 0.019490625 3.15836452748e-38
197 1 -0.028940625 -0.00125 0.020671875 1.45625098541e-43
198 1 -0.028940625 -0.00125 0.021853125 2.42575195007e-27
199 1 -0.027759375 -0.00125 -0.024215625 1.18542059078e-08
200 1 -0.027759375 -0.00125 -0.023034375 1.39904657052e-05
201 1 -0.027759375 -0.00125 -0.021853125 0.0171071815059
202 1 -0.027759375 -0.00125 -0.020671875 0.000229294620661
203 1 -0.027759375 -0.00125 -0.019490625 8.19599781084e-06
204 1 -0.027759375 -0.00125 -0.018309375 4.48704861853e-05
205 1 -0.027759375 -0.00125 -0.017128125 1.87401195606e-05
206 1 -0.027759375 -0.00125 -0.015946875 4.50546418942e-08
207 1 -0.027759375 -0.00125 -0.014765625 1.14283453736e-10
208 1 -0.027759375 -0.00125 -0.013584375 5.25650246295e-14
209 1 -0.027759375 -0.00125 -0.012403125 8.94433944298e-12
210 1 -0.027759375 -0.00125 -0.011221875 1.84713743304e-16
211 1 -0.027759375 -0.00125 -0.010040625 1.67703499962e-12
212 1 -0.027759375 -0.00125 -0.008859375 1.24727006048e-15
213 1 -0.027759375 -0.00125 -0.007678125 6.00298943229e-10
214 1 -0.027759375 -0.00125 -0.006496875 1.63422700841e-07
215 1 -0.027759375 -0.00125 -0.005315625 9.17022775837e-06
216 1 -0.027759375 -0.00125 -0.004134375 7.44935732616e-05
217 1 -0.027759375 -0.00125 -0.002953125 0.000155935578996
218 1 -0.027759375 -0.00125 -0.001771875 8.91646838584e-06
219 1 -0.027759375 -0.00125 -0.000590625 0.000384431250945
220 1 -0.027759375 -0.00125 0.000590625 1.33478073911e-05
221 1 -0.027759375 -0.00125 0.001771875 3.60712792905e-05
222 1 -0.027759375 -0.00125 0.002953125 9.5542298312e-08
223 1 -0.027759375 -0.00125 0.004134375 5.16282804754e-10
224 1 -0.027759375 -0.00125 0.005315625 3.52621031945e-13
225 1 -0.027759375 -0.00125 0.006496875 3.96878326738e-16
226 1 -0.027759375 -0.00125 0.007678125 6.5688942041e-21
227 1 -0.027759375 -0.00125 0.008859375 1.92019361473e-11
228 1 -0.027759375 -0.00125 0.010040625 1.46813057562e-10
229 1 -0.027759375 -0.00125 0.011221875 9.66908812842e-12
230 1 -0.027759375 -0.00125 0.012403125 2.2551085452e-07
231 1 -0.027759375 -0.00125 0.013584375 8.45249451383e-06
232 1 -0.027759375 -0.00125 0.014765625 6.19049338183e-06
233 1 -0.027759375 -0.00125 0.015946875 8.13941136232e-07
234 1 -0.027759375 -0.00125 0.017128125 1.36438531026e-08
235 1 -0.027759375 -0.00125 0.018309375 3.11888099181e-11
236 1 -0.027759375 -0.00125 0.019490625 2.63075330277e-22
237 1 -0.027759375 -0.00125 0.020671875 2.67729299119e-37
238 1 -0.027759375 -0.00125 0.021853125 1.2314804048e-28
239 1 -0.027759375 -0.00125 0.023034375 3.39505176326e-46
240 1 -0.027759375 -0.00125 0.024215625 1.66338118094e-127
241 1 -0.026578125 -0.00125 -0.026578125 2.20833442391e-20
242 1 -0.026578125 -0.00125 -0.025396875 8.75540099778e-19
243 1 -0.026578125 -0.00125 -0.024215625 3.2082083436e-12
244 1 -0.026578125 -0.00125 -0.023034375 3.7061859133e-06
245 1 -0.026578125 -0.00125 -0.021853125 0.000569439280683
246 1 -0.026578125 -0.00125 -0.020671875 0.00077333911445
247 1 -0.026578125 -0.00125 -0.019490625 0.000671079026329
248 1 -0.026578125 -0.00125 -0.018309375 0.000242649438563
249 1 -0.026578125 -0.00125 -0.017128125 5.79880435213e-05
250 1 -0.026578125 -0.00125 -0.015946875 3.97282492881e-07
251 1 -0.026578125 -0.00125 -0.014765625 3.04482774171e-12
252 1 -0.026578125 -0.00125 -0.013584375 1.20496235992e-11
253 1 -0.026578125 -0.00125 -0.012403125 3.63025350866e-13
254 1 -0.026578125 -0.00125 -0.011221875 1.80114463188e-10
255 1 -0.026578125 -0.00125 -0.010040625 7.5546789439e-11
256 1 -0.026578125 -0.00125 -0.008859375 4.13687283995e-08
257 1 -0.026578125 -0.00125 -0.007678125 0.00012255155592
258 1 -0.026578125 -0.00125 -0.006496875 0.000981518708646
259 1 -0.026578125 -0.00125 -0.005315625 0.00548894900678
260 1 -0.026578125 -0.00125 -0.004134375 0.00399368082187
261 1 -0.026578125 -0.00125 -0.002953125 0.00243461388992
262 1 -0.026578125 -0.00125 -0.001771875 0.00317441314085
263 1 -0.026578125 -0.00125 -0.000590625 0.00204144983155
264 1 -0.026578125 -0.00125 0.000590625 0.000920286526533
265 1 -0.026578125 -0.00125 0.001771875 0.00138467833104
266 1 -0.026578125 -0.00125 0.002953125 0.00135423546459
267 1 -0.026578125 -0.00125 0.004134375 4.8930188106e-05
268 1 -0.026578125 -0.00125 0.005315625 2.21684519309e-06
269 1 -0.026578125 -0.00125 0.006496875 6.46554660531e-18
270 1 -0.026578125 -0.00125 0.007678125 1.04996526195e-12
271 1 -0.026578125 -0.00125 0.008859375 4.83209776601e-12
272 1 -0.026578125 -0.00125 0.010040625 1.33281843797e-09
273 1 -0.026578125 -0.00125 0.011221875 6.68526381322e-07
274 1 -0.026578125 -0.00125 0.012403125 1.42272944856e-06
275 1 -0.026578125 -0.00125 0.013584375 0.000396253703947
276 1 -0.026578125 -0.00125 0.014765625 0.000209289182037
277 1 -0.026578125 -0.00125 0.015946875 4.31417765997e-05
278 1 -0.026578125 -0.00125 0.017128125 5.80655408279e-05
279 1 -0.026578125 -0.00125 0.018309375 2.59836965165e-06
280 1 -0.026578125 -0.00125 0.019490625 3.34844767136e-13
281 1 -0.026578125 -0.00125 0.020671875 2.08719251574e-25
282 1 -0.026578125 -0.00125 0.021853125 5.5309704694e-39
283 1 -0.026578125 -0.00125 0.023034375 1.69162191005e-86
284 1 -0.026578125 -0.00125 0.024215625 1.33690205682e-72
285 1 -0.026578125 -0.00125 0.025396875 3.46358956637e-53
286 1 -0.026578125 -0.00125 0.026578125 1.87619107851e-34
287 1 -0.025396875 -0.00125 -0.026578125 4.25203020341e-35
288 1 -0.025396875 -0.00125 -0.025396875 5.83045533287e-25
289 1 -0.025396875 -0.00125 -0.024215625 1.55657814653e-13
290 1 -0.025396875 -0.00125 -0.023034375 4.0977960345e-08
291 1 -0.025396875 -0.00125 -0.021853125 0.000551558908899
292 1 -0.025396875 -0.00125 -0.020671875 0.000873818112503
293 1 -0.025396875 -0.00125 -0.019490625 0.000380814092963
294 1 -0.025396875 -0.00125 -0.018309375 0.00358442452778
295 1 -0.025396875 -0.00125 -0.017128125 5.31907769087e-05
296 1 -0.025396875 -0.00125 -0.015946875 5.61227293491e-05
297 1 -0.025396875 -0.00125 -0.014765625 4.62315510616e-06
298 1 -0.025396875 -0.00125 -0.013584375 2.6286690642e-07
299 1 -0.025396875 -0.00125 -0.012403125 3.82456944698e-07
300 1 -0.025396875 -0.00125 -0.011221875 1.83915424234e-05
301 1 -0.025396875 -0.00125 -0.010040625 0.000128279239451
302 1 -0.025396875 -0.00125 -0.008859375 0.00024797729883
303 1 -0.025396875 -0.00125 -0.007678125 0.000324215497678
304 1 -0.025396875 -0.00125 -0.006496875 0.0132098638455
305 1 -0.025396875 -0.00125 -0.005315625 0.0150988366198
306 1 -0.025396875 -0.00125 -0.004134375 0.0174021505172
307 1 -0.025396875 -0.00125 -0.002953125 0.00606891641085
308 1 -0.025396875 -0.00125 -0.001771875 0.00451942966861
309 1 -0.025396875 -0.00125 -0.000590625 0.00116080344141
310 1 -0.025396875 -0.00125 0.000590625 0.00123563930091
311 1 -0.025396875 -0.00125 0.001771875 0.00362260832486
312 1 -0.025396875 -0.00125 0.002953125 0.00032319522661
313 1 -0.025396875 -0.00125 0.004134375 0.00114867756623
314 1 -0.025396875 -0.00125 0.005315625 0.000355416001622
315 1 -0.025396875 -0.00125 0.006496875 7.63137485075e-06
316 1 -0.025396875 -0.00125 0.007678125 1.55183624645e-06
317 1 -0.025396875 -0.00125 0.008859375 1.92973468731e-07
318 1 -0.025396875 -0.00125 0.010040625 3.00867281624e-10
319 1 -0.025396875 -0.00125 0.011221875 2.69982089241e-08
320 1 -0.025396875 -0.00125 0.012403125 2.98178661302e-05
321 1 -0.025396875 -0.00125 0.013584375 6.22269742357e-05
322 1 -0.025396875 -0.00125 0.014765625 0.00135827890702
323 1 -0.025396875 -0.00125 0.015946875 0.000891642601131
324 1 -0.025396875 -0.00125 0.017128125 0.000376280264773
325 1 -0.025396875 -0.00125 0.018309375 1.34117614277e-05
326 1 -0.025396875 -0.00125 0.019490625 2.20367202594e-09
327 1 -0.025396875 -0.00125 0.020671875 1.04047367166e-12
328 1 -0.025396875 -0.00125 0.021853125 3.34531978494e-38
329 1 -0.025396875 -0.00125 0.023034375 1.22245732078e-47
330 1 -0.025396875 -0.00125 0.024215625 6.23829217133e-65
331 1 -0.025396875 -0.00125 0.025396875 2.80481998498e-34
332 1 -0.025396875 -0.00125 0.026578125 4.40132455133e-95
333 1 -0.024215625 -0.00125 -0.027759375 1.30556059235e-17
334 1 -0.024215625 -0.00125 -0.026578125 4.81243475451e-17
335 1 -0.024215625 -0.00125 -0.025396875 6.86875890847e-14
336 1 -0.024215625 -0.00125 -0.024215625 3.92964332369e-07
337 1 -0.024215625 -0.00125 -0.023034375 1.7694190914e-05
338 1 -0.024215625 -0.00125 -0.021853125 0.00182533715208
339 1 -0.024215625 -0.00125 -0.020671875 0.00171058210751
340 1 -0.024215625 -0.00125 -0.019490625 0.00067068462482
341 1 -0.024215625 -0.00125 -0.018309375 0.000111397775112
342 1 -0.024215625 -0.00125 -0.017128125 0.000224730854818
343 1 -0.024215625 -0.00125 -0.015946875 0.000248438448557
344 1 -0.024215625 -0.00125 -0.014765625 0.000163254662293
345 1 -0.024215625 -0.00125 -0.013584375 0.000103265586263
346 1 -0.024215625 -0.00125 -0.012403125 0.000180008020755
347 1 -0.024215625 -0.00125 -0.011221875 0.000263773893969
348 1 -0.024215625 -0.00125 -0.010040625 0.00102868982056
349 1 -0.024215625 -0.00125 -0.008859375 0.000342291662958
350 1 -0.024215625 -0.00125 -0.007678125 0.000330270822926
351 1 -0.024215625 -0.00125 -0.006496875 0.0106232649615
352 1 -0.024215625 -0.00125 -0.005315625 0.0226264728251
353 1 -0.024215625 -0.00125 -0.004134375 0.0127061139311
354 1 -0.024215625 -0.00125 -0.002953125 0.00776009775626
355 1 -0.024215625 -0.00125 -0.001771875 0.00671678624103
356 1 -0.024215625 -0.00125 -0.000590625 0.00285610784444
357 1 -0.024215625 -0.00125 0.000590625 0.0031480099752
358 1 -0.024215625 -0.00125 0.001771875 0.0029663783495
359 1 -0.024215625 -0.00125 0.002953125 0.000521271582606
360 1 -0.024215625 -0.00125 0.004134375 0.000793136529158
361 1 -0.024215625 -0.00125 0.005315625 0.000188645018684
362 1 -0.024215625 -0.00125 0.006496875 4.56541697862e-05
363 1 -0.024215625 -0.00125 0.007678125 9.17639280756e-06
364 1 -0.024215625 -0.00125 0.008859375 1.14367650627e-06
365 1 -0.024215625 -0.00125 0.010040625 1.09060047657e-05
366 1 -0.024215625 -0.00125 0.011221875 3.7236174958e-07
367 1 -0.024215625 -0.00125 0.012403125 3.58440665131e-05
368 1 -0.024215625 -0.00125 0.013584375 0.000246150033543
369 1 -0.024215625 -0.00125 0.014765625 0.00144934052639
370 1 -0.024215625 -0.00125 0.015946875 0.00182144588706
371 1 -0.024215625 -0.00125 0.017128125 0.000721314441605
372 1 -0.024215625 -0.00125 0.018309375 1.90307477838e-05
373 1 -0.024215625 -0.00125 0.019490625 4.51337035841e-09
374 1 -0.024215625 -0.00125 0.020671875 1.7652387379e-12
375 1 -0.024215625 -0.00125 0.021853125 1.04363257343e-13
376 1 -0.024215625 -0.00125 0.023034375 4.22944621286e-28
377 1 -0.024215625 -0.00125 0.024215625 1.01581354173e-53
378 1 -0.024215625 -0.00125 0.025396875 3.78236816836e-47
379 1 -0.024215625 -0.00125 0.026578125 2.90715304951e-39
380 1 -0.024215625 -0.00125 0.027759375 3.84740403277e-36
381 1 -0.023034375 -0.00125 -0.027759375 5.32389639624e-24
382 1 -0.023034375 -0.00125 -0.026578125 1.04423676709e-09
383 1 -0.023034375 -0.00125 -0.025396875 5.5359830035e-08
384 1 -0.023034375 -0.00125 -0.024215625 6.46966049046e-07
385 1 -0.023034375 -0.00125 -0.023034375 0.000885891221374
386 1 -0.023034375 -0.00125 -0.021853125 0.000399981385277
387 1 -0.023034375 -0.00125 -0.020671875 0.00396132151767
388 1 -0.023034375 -0.00125 -0.019490625 0.00122697535849
389 1 -0.023034375 -0.00125 -0.018309375 0.00232572959791
390 1 -0.023034375 -0.00125 -0.017128125 0.00212402600956
391 1 -0.023034375 -0.00125 -0.015946875 0.00109122545831
392 1 -0.023034375 -0.00125 -0.014765625 0.000187369346979
393 1 -0.023034375 -0.00125 -0.013584375 0.000199254932625
394 1 -0.023034375 -0.00125 -0.012403125 9.6386297895e-05
395 1 -0.023034375 -0.00125 -0.011221875 0.000386744132431
396 1 -0.023034375 -0.00125 -0.010040625 0.0018870074106
397 1 -0.023034375 -0.00125 -0.008859375 0.00158555040356
398 1 -0.023034375 -0.00125 -0.007678125 0.00372254687618
399 1 -0.023034375 -0.00125 -0.006496875 0.0221617878329
400 1 -0.023034375 -0.00125 -0.005315625 0.0255191231526
401 1 -0.023034375 -0.00125 -0.004134375 0.0311221088097
402 1 -0.023034375 -0.00125 -0.002953125 0.0124716530318
403 1 -0.023034375 -0.00125 -0.001771875 0.0188632255235
404 1 -0.023034375 -0.00125 -0.000590625 0.0103491103783
405 1 -0.023034375 -0.00125 0.000590625 0.00719663066113
406 1 -0.023034375 -0.00125 0.001771875 0.0012717836313
407 1 -0.023034375 -0.00125 0.002953125 0.0031125906406
408 1 -0.023034375 -0.00125 0.004134375 0.00068359402224
409 1 -0.023034375 -0.00125 0.005315625 1.27767144536e-05
410 1 -0.023034375 -0.00125 0.006496875 0.000174726553178
411 1 -0.023034375 -0.00125 0.007678125 0.000127084234142
412 1 -0.023034375 -0.00125 0.008859375 2.09102576171e-05
413 1 -0.023034375 -0.00125 0.010040625 7.19624348127e-06
414 1 -0.023034375 -0.00125 0.011221875 1.64937810811e-05
415 1 -0.023034375 -0.00125 0.012403125 4.82438795701e-05
416 1 -0.023034375 -0.00125 0.013584375 0.00121671672917
417 1 -0.023034375 -0.00125 0.014765625 0.00645454501725
418 1 -0.023034375 -0.00125 0.015946875 0.00552526176764
419 1 -0.023034375 -0.00125 0.017128125 0.000898475491172
420 1 -0.023034375 -0.00125 0.018309375 0.000465372092591
421 1 -0.023034375 -0.00125 0.019490625 0.000226839002235
422 1 -0.023034375 -0.00125 0.020671875 3.9736793127e-06
423 1 -0.023034375 -0.00125 0.021853125 2.1408234423e-09
424 1 -0.023034375 -0.00125 0.023034375 5.06428659851e-13
425 1 -0.023034375 -0.00125 0.024215625 1.09450309985e-21
426 1 -0.023034375 -0.00125 0.025396875 1.53937314865e-31
427 1 -0.023034375 -0.00125 0.026578125 4.29783406202e-27
428 1 -0.023034375 -0.00125 0.027759375 7.89374845222e-16
429 1 -0.021853125 -0.00125 -0.028940625 9.12750008102e-11
430 1 -0.021853125 -0.00125 -0.027759375 6.14132588982e-09
431 1 -0.021853125 -0.00125 -0.026578125 9.07792818817e-10
432 1 -0.021853125 -0.00125 -0.025396875 2.08526416059e-05
433 1 -0.021853125 -0.00125 -0.024215625 0.000346178560258
434 1 -0.021853125 -0.00125 -0.023034375 0.00101024444928
435 1 -0.021853125 -0.00125 -0.021853125 0.00331830189536
436 1 -0.021853125 -0.00125 -0.020671875 0.00407084098629
437 1 -0.021853125 -0.00125 -0.019490625 0.00425533639415
438 1 -0.021853125 -0.00125 -0.018309375 0.00230865209696
439 1 -0.021853125 -0.00125 -0.017128125 0.00478780699259
440 1 -0.021853125 -0.00125 -0.015946875 0.00612213188098
441 1 -0.021853125 -0.00125 -0.014765625 0.00565944177215
442 1 -0.021853125 -0.00125 -0.013584375 0.00255944783709
443 1 -0.021853125 -0.00125 -0.012403125 0.000513164519403
444 1 -0.021853125 -0.00125 -0.011221875 0.00102396317978
445 1 -0.021853125 -0.00125 -0.010040625 0.00219417650351
446 1 -0.021853125 -0.00125 -0.008859375 0.00253151672408
447 1 -0.021853125 -0.00125 -0.007678125 0.0146456479364
448 1 -0.021853125 -0.00125 -0.006496875 0.0195402367721
449 1 -0.021853125 -0.00125 -0.005315625 0.0242186909039
450 1 -0.021853125 -0.00125 -0.004134375 0.0284026125488
451 1 -0.021853125 -0.00125 -0.002953125 0.00977353027331
452 1 -0.021853125 -0.00125 -0.001771875 0.00983147192866
453 1 -0.021853125 -0.00125 -0.000590625 0.0205595291885
454 1 -0.021853125 -0.00125 0.000590625 0.00724414172257
455 1 -0.021853125 -0.00125 0.001771875 0.00147746204688
456 1 -0.021853125 -0.00125 0.002953125 0.00386930923971
457 1 -0.021853125 -0.00125 0.004134375 0.00683893634081
458 1 -0.021853125 -0.00125 0.005315625 0.00420094151816
459 1 -0.021853125 -0.00125 0.006496875 0.000372703181901
460 1 -0.021853125 -0.00125 0.007678125 0.00014493057293
461 1 -0.021853125 -0.00125 0.008859375 0.00055894354398
462 1 -0.021853125 -0.00125 0.010040625 0.000285226714254
463 1 -0.021853125 -0.00125 0.011221875 0.000253226397632
464 1 -0.021853125 -0.00125 0.012403125 0.00185605587076
465 1 -0.021853125 -0.00125 0.013584375 0.00466264771556
466 1 -0.021853125 -0.00125 0.014765625 0.0126723629746
467 1 -0.021853125 -0.00125 0.015946875 0.0212826385469
468 1 -0.021853125 -0.00125 0.017128125 0.00647128525505
469 1 -0.021853125 -0.00125 0.018309375 0.00190515698474
470 1 -0.021853125 -0.00125 0.019490625 0.00148809748027
471 1 -0.021853125 -0.00125 0.020671875 5.33648458972e-05
472 1 -0.021853125 -0.00125 0.021853125 3.1107287466e-05
473 1 -0.021853125 -0.00125 0.023034375 4.41257337675e-08
474 1 -0.021853125 -0.00125 0.024215625 1.10944100053e-12
475 1 -0.021853125 -0.00125 0.025396875 5.55014911769e-11
476 1 -0.021853125 -0.00125 0.026578125 1.03897228653e-15
477 1 -0.021853125 -0.00125 0.027759375 1.8038947167e-11
478 1 -0.021853125 -0.00125 0.028940625 8.39206817268e-12
479 1 -0.020671875 -0.00125 -0.030121875 3.95097775541e-09
480 1 -0.020671875 -0.00125 -0.028940625 3.66568329293e-09
481 1 -0.020671875 -0.00125 -0.027759375 1.08561538975e-08
482 1 -0.020671875 -0.00125 -0.026578125 3.64461100946e-07
483 1 -0.020671875 -0.00125 -0.025396875 2.08399574205e-07
484 1 -0.020671875 -0.00125 -0.024215625 3.44700142618e-05
485 1 -0.020671875 -0.00125 -0.023034375 0.00141438767753
486 1 -0.020671875 -0.00125 -0.021853125 0.00384800868559
487 1 -0.020671875 -0.00125 -0.020671875 0.00388177050956
488 1 -0.020671875 -0.00125 -0.019490625 0.0188145063968
489 1 -0.020671875 -0.00125 -0.018309375 0.0284594165797
490 1 -0.020671875 -0.00125 -0.017128125 0.015344408388
491 1 -0.020671875 -0.00125 -0.015946875 0.0239475278282
492 1 -0.020671875 -0.00125 -0.014765625 0.00682967171376
493 1 -0.020671875 -0.00125 -0.013584375 0.00389126625525
494 1 -0.020671875 -0.00125 -0.012403125 0.0027792566062
495 1 -0.020671875 -0.00125 -0.011221875 0.000800795926925
496 1 -0.020671875 -0.00125 -0.010040625 0.00404705052884
497 1 -0.020671875 -0.00125 -0.008859375 0.00118135846706
498 1 -0.020671875 -0.00125 -0.007678125 0.00961348726236
499 1 -0.020671875 -0.00125 -0.006496875 0.0322067630989
500 1 -0.020671875 -0.00125 -0.005315625 0.0526111782548
501 1 -0.020671875 -0.00125 -0.004134375 0.0724645826508
502 1 -0.020671875 -0.00125 -0.002953125 0.0328026093487
503 1 -0.020671875 -0.00125 -0.001771875 0.0587658593604
504 1 -0.020671875 -0.00125 -0.000590625 0.0327210701955
505 1 -0.020671875 -0.00125 0.000590625 0.032432631229
506 1 -0.020671875 -0.00125 0.001771875 0.0284877771592
507 1 -0.020671875 -0.00125 0.002953125 0.00645942808294
508 1 -0.020671875 -0.00125 0.004134375 0.00965744806706
509 1 -0.020671875 -0.00125 0.005315625 0.00423972055694
510 1 -0.020671875 -0.00125 0.006496875 0.00121244070387
511 1 -0.020671875 -0.00125 0.007678125 0.00107638581523
512 1 -0.020671875 -0.00125 0.008859375 0.00400342953151
513 1 -0.020671875 -0.00125 0.010040625 0.000682572344424