ITEM: TIMESTEP
0
ITEM: NUMBER OF ATOMS
3080
ITEM: BOX BOUNDS ss ss ss
-3.7007399999999996e-02 3.7007399999999996e-02
-2.0002499999999999e-03 2.5000000000000004e-07
-3.7007399999999996e-02 3.7007399999999996e-02
ITEM: ATOMS id type x y z c_1
0 1 -0.037209375 -0.00125 -0.000590625 0.999949856922
1 1 -0.036028125 -0.00125 -0.007678125 2.78597326693e-06
2 1 -0.036028125 -0.00125 -0.006496875 1.3332511553e-14
3 1 -0.036028125 -0.00125 -0.005315625 2.09753327145e-28
4 1 -0.036028125 -0.00125 -0.004134375 1.67347207276e-16
5 1 -0.036028125 -0.00125 -0.002953125 0.0013181542372
6 1 -0.036028125 -0.00125 -0.001771875 0.0575544281191
7 1 -0.036028125 -0.00125 -0.000590625 0.0358495182228
8 1 -0.036028125 -0.00125 0.000590625 8.36526028503e-07
9 1 -0.036028125 -0.00125 0.001771875 9.52916657214e-06
10 1 -0.036028125 -0.00125 0.002953125 2.13802828192e-21
11 1 -0.036028125 -0.00125 0.004134375 6.16472147515e-51
12 1 -0.036028125 -0.00125 0.005315625 3.39109678755e-57
13 1 -0.036028125 -0.00125 0.006496875 1.01259665618e-28
14 1 -0.036028125 -0.00125 0.007678125 3.57527177442e-19
15 1 -0.034846875 -0.00125 -0.011221875 0.0136112795366
16 1 -0.034846875 -0.00125 -0.010040625 0.000788502096535
17 1 -0.034846875 -0.00125 -0.008859375 0.0360877628671
18 1 -0.034846875 -0.00125 -0.007678125 2.41466756432e-07
19 1 -0.034846875 -0.00125 -0.006496875 7.72397505998e-11
20 1 -0.034846875 -0.00125 -0.005315625 1.31570781704e-30
21 1 -0.034846875 -0.00125 -0.004134375 2.05849957962e-19
22 1 -0.034846875 -0.00125 -0.002953125 0.000334354606606
23 1 -0.034846875 -0.00125 -0.001771875 0.0290561535343
24 1 -0.034846875 -0.00125 -0.000590625 0.00563801108167
25 1 -0.034846875 -0.00125 0.000590625 9.18916487919e-08
26 1 -0.034846875 -0.00125 0.001771875 4.30350994765e-12
27 1 -0.034846875 -0.00125 0.002953125 2.79063410532e-25
28 1 -0.034846875 -0.00125 0.004134375 7.93930325694e-72
29 1 -0.034846875 -0.00125 0.005315625 8.23426716416e-94
30 1 -0.034846875 -0.00125 0.006496875 4.72993704407e-62
31 1 -0.034846875 -0.00125 0.007678125 1.30844333884e-29
32 1 -0.034846875 -0.00125 0.008859375 8.24343319375e-07
33 1 -0.034846875 -0.00125 0.010040625 9.82634411176e-17
34 1 -0.034846875 -0.00125 0.011221875 8.84406104742e-13
35 1 -0.033665625 -0.00125 -0.013584375 7.32086904098e-05
36 1 -0.033665625 -0.00125 -0.012403125 0.136347666582
37 1 -0.033665625 -0.00125 -0.011221875 0.0331630174758
38 1 -0.033665625 -0.00125 -0.010040625 0.00288205784796
39 1 -0.033665625 -0.00125 -0.008859375 0.00639518395674
40 1 -0.033665625 -0.00125 -0.007678125 0.000112235350182
41 1 -0.033665625 -0.00125 -0.006496875 2.26478553506e-11
42 1 -0.033665625 -0.00125 -0.005315625 3.91983130085e-26
43 1 -0.033665625 -0.00125 -0.004134375 6.62954367394e-08
44 1 -0.033665625 -0.00125 -0.002953125 2.94403731463e-05
45 1 -0.033665625 -0.00125 -0.001771875 0.00365386198308
46 1 -0.033665625 -0.00125 -0.000590625 0.00717190637636
47 1 -0.033665625 -0.00125 0.000590625 1.77071506479e-07
48 1 -0.033665625 -0.00125 0.001771875 2.03130906704e-13
49 1 -0.033665625 -0.00125 0.002953125 2.37997240874e-22
50 1 -0.033665625 -0.00125 0.004134375 8.46219539264e-71
51 1 -0.033665625 -0.00125 0.005315625 7.13265489662e-81
52 1 -0.033665625 -0.00125 0.006496875 7.92071526195e-46
53 1 -0.033665625 -0.00125 0.007678125 1.11545872671e-19
54 1 -0.033665625 -0.00125 0.008859375 1.16408195842e-08
55 1 -0.033665625 -0.00125 0.010040625 9.62117121206e-14
56 1 -0.033665625 -0.00125 0.011221875 3.92723980998e-13
57 1 -0.033665625 -0.00125 0.012403125 6.912235764e-08
58 1 -0.033665625 -0.00125 0.013584375 1.61332891099e-22
59 1 -0.032484375 -0.00125 -0.018309375 0.000732341583553
60 1 -0.032484375 -0.00125 -0.017128125 0.00119171349809
61 1 -0.032484375 -0.00125 -0.015946875 0.0111983735698
62 1 -0.032484375 -0.00125 -0.014765625 0.000387753117869
63 1 -0.032484375 -0.00125 -0.013584375 5.9419160612e-06
64 1 -0.032484375 -0.00125 -0.012403125 0.0605500017746
65 1 -0.032484375 -0.00125 -0.011221875 0.0525330406905
66 1 -0.032484375 -0.00125 -0.010040625 0.001935076166
67 1 -0.032484375 -0.00125 -0.008859375 0.00603623552634
68 1 -0.032484375 -0.00125 -0.007678125 0.000328657648251
69 1 -0.032484375 -0.00125 -0.006496875 1.49541537004e-09
70 1 -0.032484375 -0.00125 -0.005315625 6.8479511896e-15
71 1 -0.032484375 -0.00125 -0.004134375 1.03556391301e-08
72 1 -0.032484375 -0.00125 -0.002953125 5.56777505089e-06
73 1 -0.032484375 -0.00125 -0.001771875 1.75150223028e-05
74 1 -0.032484375 -0.00125 -0.000590625 7.73829246871e-05
75 1 -0.032484375 -0.00125 0.000590625 3.45788660701e-06
76 1 -0.032484375 -0.00125 0.001771875 3.1059677533e-05
77 1 -0.032484375 -0.00125 0.002953125 5.15137557432e-12
78 1 -0.032484375 -0.00125 0.004134375 4.7144456155e-21
79 1 -0.032484375 -0.00125 0.005315625 1.41024526596e-35
80 1 -0.032484375 -0.00125 0.006496875 4.97441281255e-29
81 1 -0.032484375 -0.00125 0.007678125 2.31061279326e-16
82 1 -0.032484375 -0.00125 0.008859375 9.52645925058e-09
83 1 -0.032484375 -0.00125 0.010040625 1.4691628772e-10
84 1 -0.032484375 -0.00125 0.011221875 1.75447416147e-08
85 1 -0.032484375 -0.00125 0.012403125 4.65842385932e-11
86 1 -0.032484375 -0.00125 0.013584375 6.5477065756e-36
87 1 -0.032484375 -0.00125 0.014765625 3.04033682498e-17
88 1 -0.032484375 -0.00125 0.015946875 3.46637783215e-12
89 1 -0.032484375 -0.00125 0.017128125 2.32096455444e-11
90 1 -0.032484375 -0.00125 0.018309375 9.04675081616e-14
91 1 -0.031303125 -0.00125 -0.019490625 0.000333959765246
92 1 -0.031303125 -0.00125 -0.018309375 0.00327216246835
93 1 -0.031303125 -0.00125 -0.017128125 0.0122729751864
94 1 -0.031303125 -0.00125 -0.015946875 0.00580574928661
95 1 -0.031303125 -0.00125 -0.014765625 0.00248263061268
96 1 -0.031303125 -0.00125 -0.013584375 0.000934430609132
97 1 -0.031303125 -0.00125 -0.012403125 0.0286899404328
98 1 -0.031303125 -0.00125 -0.011221875 0.0228139327466
99 1 -0.031303125 -0.00125 -0.010040625 0.00181577567926
100 1 -0.031303125 -0.00125 -0.008859375 2.62041876971e-05
101 1 -0.031303125 -0.00125 -0.007678125 9.28163321464e-05
102 1 -0.031303125 -0.00125 -0.006496875 2.35583824212e-06
103 1 -0.031303125 -0.00125 -0.005315625 1.13034050636e-08
104 1 -0.031303125 -0.00125 -0.004134375 9.66938294661e-11
105 1 -0.031303125 -0.00125 -0.002953125 4.21641471712e-07
106 1 -0.031303125 -0.00125 -0.001771875 2.13072516475e-05
107 1 -0.031303125 -0.00125 -0.000590625 0.000149432815975
108 1 -0.031303125 -0.00125 0.000590625 5.58603703442e-05
109 1 -0.031303125 -0.00125 0.001771875 4.36362621404e-06
110 1 -0.031303125 -0.00125 0.002953125 8.03086160148e-07
111 1 -0.031303125 -0.00125 0.004134375 4.36759915092e-08
112 1 -0.031303125 -0.00125 0.005315625 4.90202496472e-11
113 1 -0.031303125 -0.00125 0.006496875 6.56137874058e-16
114 1 -0.031303125 -0.00125 0.007678125 6.25589982183e-11
115 1 -0.031303125 -0.00125 0.008859375 4.11964840605e-12
116 1 -0.031303125 -0.00125 0.010040625 3.67661042848e-12
117 1 -0.031303125 -0.00125 0.011221875 5.22395734697e-10
118 1 -0.031303125 -0.00125 0.012403125 3.38785289816e-07
119 1 -0.031303125 -0.00125 0.013584375 7.07988720381e-15
120 1 -0.031303125 -0.00125 0.014765625 1.33189672638e-14
121 1 -0.031303125 -0.00125 0.015946875 3.03591895214e-12
122 1 -0.031303125 -0.00125 0.017128125 4.45302854104e-20
123 1 -0.031303125 -0.00125 0.018309375 8.93366819237e-19
124 1 -0.031303125 -0.00125 0.019490625 4.03694728697e-28
125 1 -0.030121875 -0.00125 -0.020671875 0.000108089667344
126 1 -0.030121875 -0.00125 -0.019490625 0.00283192409998
127 1 -0.030121875 -0.00125 -0.018309375 0.00338864079017
128 1 -0.030121875 -0.00125 -0.017128125 0.00998663514692
129 1 -0.030121875 -0.00125 -0.015946875 0.00393435888197
130 1 -0.030121875 -0.00125 -0.014765625 0.000214647657421
131 1 -0.030121875 -0.00125 -0.013584375 1.11668366376e-06
132 1 -0.030121875 -0.00125 -0.012403125 0.000429375625176
133 1 -0.030121875 -0.00125 -0.011221875 4.95755661348e-05
134 1 -0.030121875 -0.00125 -0.010040625 2.70469523839e-07
135 1 -0.030121875 -0.00125 -0.008859375 4.06540968034e-11
136 1 -0.030121875 -0.00125 -0.007678125 7.54462844278e-09
137 1 -0.030121875 -0.00125 -0.006496875 7.12809934821e-10
138 1 -0.030121875 -0.00125 -0.005315625 3.13670497174e-07
139 1 -0.030121875 -0.00125 -0.004134375 3.26969033785e-12
140 1 -0.030121875 -0.00125 -0.002953125 3.13954656312e-07
141 1 -0.030121875 -0.00125 -0.001771875 6.95846881714e-06
142 1 -0.030121875 -0.00125 -0.000590625 8.82703957701e-07
143 1 -0.030121875 -0.00125 0.000590625 7.28943851201e-06
144 1 -0.030121875 -0.00125 0.001771875 3.33394325705e-05
145 1 -0.030121875 -0.00125 0.002953125 2.50078106348e-05
146 1 -0.030121875 -0.00125 0.004134375 6.58968607217e-06
147 1 -0.030121875 -0.00125 0.005315625 2.44506420686e-07
148 1 -0.030121875 -0.00125 0.006496875 1.63078084039e-12
149 1 -0.030121875 -0.00125 0.007678125 8.43059528634e-11
150 1 -0.030121875 -0.00125 0.008859375 2.33349191928e-13
151 1 -0.030121875 -0.00125 0.010040625 4.26336631939e-08
152 1 -0.030121875 -0.00125 0.011221875 4.53399636378e-09
153 1 -0.030121875 -0.00125 0.012403125 1.16061822044e-05
154 1 -0.030121875 -0.00125 0.013584375 1.908629676e-05
155 1 -0.030121875 -0.00125 0.014765625 1.03410360853e-08
156 1 -0.030121875 -0.00125 0.015946875 4.98986074645e-12
157 1 -0.030121875 -0.00125 0.017128125 2.3191690827e-14
158 1 -0.030121875 -0.00125 0.018309375 1.15533851721e-20
159 1 -0.030121875 -0.00125 0.019490625 3.17391524048e-36
160 1 -0.030121875 -0.00125 0.020671875 8.04713409572e-52
161 1 -0.028940625 -0.00125 -0.021853125 0.0768635984367
162 1 -0.028940625 -0.00125 -0.020671875 0.0172853017016
163 1 -0.028940625 -0.00125 -0.019490625 0.0206682546752
164 1 -0.028940625 -0.00125 -0.018309375 0.00355764800958
165 1 -0.028940625 -0.00125 -0.017128125 0.000943739409554
166 1 -0.028940625 -0.00125 -0.015946875 0.000820892764943
167 1 -0.028940625 -0.00125 -0.014765625 0.000163811499315
168 1 -0.028940625 -0.00125 -0.013584375 6.1464490738e-08
169 1 -0.028940625 -0.00125 -0.012403125 1.14775913616e-09
170 1 -0.028940625 -0.00125 -0.011221875 3.67121705124e-10
171 1 -0.028940625 -0.00125 -0.010040625 4.47682614603e-11
172 1 -0.028940625 -0.00125 -0.008859375 2.25225755896e-13
173 1 -0.028940625 -0.00125 -0.007678125 2.61496571715e-12
174 1 -0.028940625 -0.00125 -0.006496875 6.87308352394e-08
175 1 -0.028940625 -0.00125 -0.005315625 1.83210517602e-06
176 1 -0.028940625 -0.00125 -0.004134375 1.02018831442e-05
177 1 -0.028940625 -0.00125 -0.002953125 8.12457396744e-06
178 1 -0.028940625 -0.00125 -0.001771875 3.11181873722e-05
179 1 -0.028940625 -0.00125 -0.000590625 0.000120242045864
180 1 -0.028940625 -0.00125 0.000590625 0.000110282373031
181 1 -0.028940625 -0.00125 0.001771875 5.06147552265e-05
182 1 -0.028940625 -0.00125 0.002953125 2.56105138335e-05
183 1 -0.028940625 -0.00125 0.004134375 1.64086090808e-07
184 1 -0.028940625 -0.00125 0.005315625 8.00861612751e-10
185 1 -0.028940625 -0.00125 0.006496875 3.99881391943e-07
186 1 -0.028940625 -0.00125 0.007678125 1.51324086901e-10
187 1 -0.028940625 -0.00125 0.008859375 2.69466510813e-15
188 1 -0.028940625 -0.00125 0.010040625 3.28675490551e-10
189 1 -0.028940625 -0.00125 0.011221875 1.88216921062e-06
190 1 -0.028940625 -0.00125 0.012403125 1.54480030245e-05
191 1 -0.028940625 -0.00125 0.013584375 5.63465452966e-05
192 1 -0.028940625 -0.00125 0.014765625 8.99742544098e-08
193 1 -0.028940625 -0.00125 0.015946875 2.97487780653e-09
194 1 -0.028940625 -0.00125 0.017128125 5.07470173475e-11
195 1 -0.028940625 -0.00125 0.018309375 6.14663824705e-16
196 1 -0.028940625 -0.00125 0.019490625 5.58631499982e-41
197 1 -0.028940625 -0.00125 0.020671875 1.03556922942e-46
198 1 -0.028940625 -0.00125 0.021853125 6.72471385378e-26
199 1 -0.027759375 -0.00125 -0.024215625 0.000362460543703
200 1 -0.027759375 -0.00125 -0.023034375 0.0359984320135
201 1 -0.027759375 -0.00125 -0.021853125 0.200261158025
202 1 -0.027759375 -0.00125 -0.020671875 0.0986545078823
203 1 -0.027759375 -0.00125 -0.019490625 0.0285844601747
204 1 -0.027759375 -0.00125 -0.018309375 0.0144370294091
205 1 -0.027759375 -0.00125 -0.017128125 0.00222517450343
206 1 -0.027759375 -0.00125 -0.015946875 1.28244727392e-05
207 1 -0.027759375 -0.00125 -0.014765625 4.05725574405e-09
208 1 -0.027759375 -0.00125 -0.013584375 8.95109023354e-12
209 1 -0.027759375 -0.00125 -0.012403125 1.30459403812e-08
210 1 -0.027759375 -0.00125 -0.011221875 1.38835006002e-10
211 1 -0.027759375 -0.00125 -0.010040625 3.05585706687e-10
212 1 -0.027759375 -0.00125 -0.008859375 3.90580308007e-10
213 1 -0.027759375 -0.00125 -0.007678125 1.41053334615e-06
214 1 -0.027759375 -0.00125 -0.006496875 0.000585861880451
215 1 -0.027759375 -0.00125 -0.005315625 0.00312148515496
216 1 -0.027759375 -0.00125 -0.004134375 0.00753152239439
217 1 -0.027759375 -0.00125 -0.002953125 0.00321921597563
218 1 -0.027759375 -0.00125 -0.001771875 0.00078033441332
219 1 -0.027759375 -0.00125 -0.000590625 0.00202521154012
220 1 -0.027759375 -0.00125 0.000590625 0.000862347950243
221 1 -0.027759375 -0.00125 0.001771875 0.00168807221054
222 1 -0.027759375 -0.00125 0.002953125 5.58266168795e-05
223 1 -0.027759375 -0.00125 0.004134375 2.53412747813e-06
224 1 -0.027759375 -0.00125 0.005315625 2.27009758451e-08
225 1 -0.027759375 -0.00125 0.006496875 1.12719433339e-07
226 1 -0.027759375 -0.00125 0.007678125 4.55216865105e-07
227 1 -0.027759375 -0.00125 0.008859375 8.41018790337e-06
228 1 -0.027759375 -0.00125 0.010040625 0.000183775047934
229 1 -0.027759375 -0.00125 0.011221875 0.00152006222801
230 1 -0.027759375 -0.00125 0.012403125 0.00474638097805
231 1 -0.027759375 -0.00125 0.013584375 0.00759818154678
232 1 -0.027759375 -0.00125 0.014765625 0.000691989956968
233 1 -0.027759375 -0.00125 0.015946875 1.05269152424e-05
234 1 -0.027759375 -0.00125 0.017128125 9.04673279047e-09
235 1 -0.027759375 -0.00125 0.018309375 6.59968145204e-14
236 1 -0.027759375 -0.00125 0.019490625 1.97644480977e-26
237 1 -0.027759375 -0.00125 0.020671875 1.35648056932e-39
238 1 -0.027759375 -0.00125 0.021853125 2.29047737699e-27
239 1 -0.027759375 -0.00125 0.023034375 2.80971872809e-50
240 1 -0.027759375 -0.00125 0.024215625 3.09137086519e-146
241 1 -0.026578125 -0.00125 -0.026578125 1.58391071358e-09
242 1 -0.026578125 -0.00125 -0.025396875 6.64686570215e-07
243 1 -0.026578125 -0.00125 -0.024215625 2.40347886813e-05
244 1 -0.026578125 -0.00125 -0.023034375 0.0113191575591
245 1 -0.026578125 -0.00125 -0.021853125 0.107834148987
246 1 -0.026578125 -0.00125 -0.020671875 0.0718476787033
247 1 -0.026578125 -0.00125 -0.019490625 0.0459220101385
248 1 -0.026578125 -0.00125 -0.018309375 0.0208827390662
249 1 -0.026578125 -0.00125 -0.017128125 0.00459073914073
250 1 -0.026578125 -0.00125 -0.015946875 2.77000063407e-05
251 1 -0.026578125 -0.00125 -0.014765625 5.01313946469e-11
252 1 -0.026578125 -0.00125 -0.013584375 2.87405914095e-11
253 1 -0.026578125 -0.00125 -0.012403125 2.74630822499e-11
254 1 -0.026578125 -0.00125 -0.011221875 2.62557895737e-08
255 1 -0.026578125 -0.00125 -0.010040625 1.77896959981e-08
256 1 -0.026578125 -0.00125 -0.008859375 4.07548750843e-05
257 1 -0.026578125 -0.00125 -0.007678125 0.00363991531358
258 1 -0.026578125 -0.00125 -0.006496875 0.0128100817761
259 1 -0.026578125 -0.00125 -0.005315625 0.0419840201771
260 1 -0.026578125 -0.00125 -0.004134375 0.0248306623621
261 1 -0.026578125 -0.00125 -0.002953125 0.0182101478469
262 1 -0.026578125 -0.00125 -0.001771875 0.0151417763233
263 1 -0.026578125 -0.00125 -0.000590625 0.00349375847431
264 1 -0.026578125 -0.00125 0.000590625 0.0059642945252
265 1 -0.026578125 -0.00125 0.001771875 0.00645656849848
266 1 -0.026578125 -0.00125 0.002953125 0.00206101905497
267 1 -0.026578125 -0.00125 0.004134375 0.000285275027855
268 1 -0.026578125 -0.00125 0.005315625 0.000106738708103
269 1 -0.026578125 -0.00125 0.006496875 1.01608677514e-08
270 1 -0.026578125 -0.00125 0.007678125 8.00296613311e-07
271 1 -0.026578125 -0.00125 0.008859375 2.51065257924e-05
272 1 -0.026578125 -0.00125 0.010040625 0.000655954564017
273 1 -0.026578125 -0.00125 0.011221875 0.0179938846949
274 1 -0.026578125 -0.00125 0.012403125 0.0181322240054
275 1 -0.026578125 -0.00125 0.013584375 0.0224279630342
276 1 -0.026578125 -0.00125 0.014765625 0.0044450274179
277 1 -0.026578125 -0.00125 0.015946875 5.469263403e-05
278 1 -0.026578125 -0.00125 0.017128125 4.92767423115e-06
279 1 -0.026578125 -0.00125 0.018309375 9.65472258649e-08
280 1 -0.026578125 -0.00125 0.019490625 8.9640822385e-15
281 1 -0.026578125 -0.00125 0.020671875 1.08671837986e-27
282 1 -0.026578125 -0.00125 0.021853125 4.48396347254e-45
283 1 -0.026578125 -0.00125 0.023034375 6.4375522492e-120
284 1 -0.026578125 -0.00125 0.024215625 8.22757252819e-93
285 1 -0.026578125 -0.00125 0.025396875 6.00115905248e-61
286 1 -0.026578125 -0.00125 0.026578125 1.07447507511e-53
287 1 -0.025396875 -0.00125 -0.026578125 6.67044853343e-14
288 1 -0.025396875 -0.00125 -0.025396875 9.5833995167e-07
289 1 -0.025396875 -0.00125 -0.024215625 0.000206259693728
290 1 -0.025396875 -0.00125 -0.023034375 0.0120431584968
291 1 -0.025396875 -0.00125 -0.021853125 0.0814129797073
292 1 -0.025396875 -0.00125 -0.020671875 0.0888307406293
293 1 -0.025396875 -0.00125 -0.019490625 0.0307089607391
294 1 -0.025396875 -0.00125 -0.018309375 0.0481032672696
295 1 -0.025396875 -0.00125 -0.017128125 0.0014927532126
296 1 -0.025396875 -0.00125 -0.015946875 0.000160030434898
297 1 -0.025396875 -0.00125 -0.014765625 1.34003734405e-06
298 1 -0.025396875 -0.00125 -0.013584375 5.80833028436e-08
299 1 -0.025396875 -0.00125 -0.012403125 3.46279388281e-07
300 1 -0.025396875 -0.00125 -0.011221875 8.59434388437e-05
301 1 -0.025396875 -0.00125 -0.010040625 0.000823244565317
302 1 -0.025396875 -0.00125 -0.008859375 0.00745968449978
303 1 -0.025396875 -0.00125 -0.007678125 0.0130051818605
304 1 -0.025396875 -0.00125 -0.006496875 0.0399329385963
305 1 -0.025396875 -0.00125 -0.005315625 0.0319985626166
306 1 -0.025396875 -0.00125 -0.004134375 0.0213374992463
307 1 -0.025396875 -0.00125 -0.002953125 0.0108123926204
308 1 -0.025396875 -0.00125 -0.001771875 0.0106895520081
309 1 -0.025396875 -0.00125 -0.000590625 0.00117910009938
310 1 -0.025396875 -0.00125 0.000590625 0.00201968748585
311 1 -0.025396875 -0.00125 0.001771875 0.00393753273221
312 1 -0.025396875 -0.00125 0.002953125 0.000552089195614
313 1 -0.025396875 -0.00125 0.004134375 0.000718312785882
314 1 -0.025396875 -0.00125 0.005315625 0.00142685326945
315 1 -0.025396875 -0.00125 0.006496875 0.000736294173003
316 1 -0.025396875 -0.00125 0.007678125 0.00124384928541
317 1 -0.025396875 -0.00125 0.008859375 0.00135361775959
318 1 -0.025396875 -0.00125 0.010040625 0.00301300165543
319 1 -0.025396875 -0.00125 0.011221875 0.00364141308867
320 1 -0.025396875 -0.00125 0.012403125 0.0726916876902
321 1 -0.025396875 -0.00125 0.013584375 0.0399454758786
322 1 -0.025396875 -0.00125 0.014765625 0.024570402484
323 1 -0.025396875 -0.00125 0.015946875 0.000811103323287
324 1 -0.025396875 -0.00125 0.017128125 0.000271670913886
325 1 -0.025396875 -0.00125 0.018309375 2.47364309529e-06
326 1 -0.025396875 -0.00125 0.019490625 2.73927449718e-11
327 1 -0.025396875 -0.00125 0.020671875 2.94819828701e-15
328 1 -0.025396875 -0.00125 0.021853125 2.95357066116e-47
329 1 -0.025396875 -0.00125 0.023034375 5.68572666692e-75
330 1 -0.025396875 -0.00125 0.024215625 3.72194464723e-76
331 1 -0.025396875 -0.00125 0.025396875 5.74734187384e-51
332 1 -0.025396875 -0.00125 0.026578125 2.07111755693e-125
333 1 -0.024215625 -0.00125 -0.027759375 3.15292505609e-09
334 1 -0.024215625 -0.00125 -0.026578125 4.3744055283e-07
335 1 -0.024215625 -0.00125 -0.025396875 3.07483234382e-05
336 1 -0.024215625 -0.00125 -0.024215625 0.00288126435677
337 1 -0.024215625 -0.00125 -0.023034375 0.0095676808077
338 1 -0.024215625 -0.00125 -0.021853125 0.0361450040061
339 1 -0.024215625 -0.00125 -0.020671875 0.0510607030206
340 1 -0.024215625 -0.00125 -0.019490625 0.0273220090897
341 1 -0.024215625 -0.00125 -0.018309375 0.00284709312382
342 1 -0.024215625 -0.00125 -0.017128125 0.00102303045419
343 1 -0.024215625 -0.00125 -0.015946875 0.00036595174552
344 1 -0.024215625 -0.00125 -0.014765625 5.83603296146e-05
345 1 -0.024215625 -0.00125 -0.013584375 0.000106928421626
346 1 -0.024215625 -0.00125 -0.012403125 0.0002804800585
347 1 -0.024215625 -0.00125 -0.011221875 0.000808751848858
348 1 -0.024215625 -0.00125 -0.010040625 0.00353009145334
349 1 -0.024215625 -0.00125 -0.008859375 0.00527353843582
350 1 -0.024215625 -0.00125 -0.007678125 0.00561041411424
351 1 -0.024215625 -0.00125 -0.006496875 0.00977662889377
352 1 -0.024215625 -0.00125 -0.005315625 0.0118643230709
353 1 -0.024215625 -0.00125 -0.004134375 0.00763692339551
354 1 -0.024215625 -0.00125 -0.002953125 0.00463957623201
355 1 -0.024215625 -0.00125 -0.001771875 0.00402673248834
356 1 -0.024215625 -0.00125 -0.000590625 0.000977355270788
357 1 -0.024215625 -0.00125 0.000590625 0.00203105101858
358 1 -0.024215625 -0.00125 0.001771875 0.00210736966202
359 1 -0.024215625 -0.00125 0.002953125 0.000462415612967
360 1 -0.024215625 -0.00125 0.004134375 0.000649050166234
361 1 -0.024215625 -0.00125 0.005315625 0.000909841336909
362 1 -0.024215625 -0.00125 0.006496875 0.00100454183175
363 1 -0.024215625 -0.00125 0.007678125 0.00255662456506
364 1 -0.024215625 -0.00125 0.008859375 0.00408073081719
365 1 -0.024215625 -0.00125 0.010040625 0.0196118730124
366 1 -0.024215625 -0.00125 0.011221875 0.0149521166036
367 1 -0.024215625 -0.00125 0.012403125 0.0520185786585
368 1 -0.024215625 -0.00125 0.013584375 0.0435985104638
369 1 -0.024215625 -0.00125 0.014765625 0.023086131938
370 1 -0.024215625 -0.00125 0.015946875 0.00845130764922
371 1 -0.024215625 -0.00125 0.017128125 0.000779416625545
372 1 -0.024215625 -0.00125 0.018309375 6.33104997682e-06
373 1 -0.024215625 -0.00125 0.019490625 1.13455796722e-10
374 1 -0.024215625 -0.00125 0.020671875 3.86499946284e-14
375 1 -0.024215625 -0.00125 0.021853125 1.90587536296e-20
376 1 -0.024215625 -0.00125 0.023034375 5.39666306163e-42
377 1 -0.024215625 -0.00125 0.024215625 3.84894643857e-65
378 1 -0.024215625 -0.00125 0.025396875 1.92429442838e-47
379 1 -0.024215625 -0.00125 0.026578125 2.54473133841e-55
380 1 -0.024215625 -0.00125 0.027759375 1.67494518813e-50
381 1 -0.023034375 -0.00125 -0.027759375 7.6659295219e-09
382 1 -0.023034375 -0.00125 -0.026578125 0.000122320274939
383 1 -0.023034375 -0.00125 -0.025396875 0.000870287439938
384 1 -0.023034375 -0.00125 -0.024215625 0.00103279784034
385 1 -0.023034375 -0.00125 -0.023034375 0.0116151755237
386 1 -0.023034375 -0.00125 -0.021853125 0.0153327929522
387 1 -0.023034375 -0.00125 -0.020671875 0.0596156642553
388 1 -0.023034375 -0.00125 -0.019490625 0.0239855079227
389 1 -0.023034375 -0.00125 -0.018309375 0.0267981981654
390 1 -0.023034375 -0.00125 -0.017128125 0.0122551081231
391 1 -0.023034375 -0.00125 -0.015946875 0.00341182406788
392 1 -0.023034375 -0.00125 -0.014765625 0.000348233576914
393 1 -0.023034375 -0.00125 -0.013584375 0.000410528289667
394 1 -0.023034375 -0.00125 -0.012403125 0.000479690253109
395 1 -0.023034375 -0.00125 -0.011221875 0.00166166476494
396 1 -0.023034375 -0.00125 -0.010040625 0.00952497466785
397 1 -0.023034375 -0.00125 -0.008859375 0.0119851546275
398 1 -0.023034375 -0.00125 -0.007678125 0.0178208740195
399 1 -0.023034375 -0.00125 -0.006496875 0.0217721770067
400 1 -0.023034375 -0.00125 -0.005315625 0.0125493800761
401 1 -0.023034375 -0.00125 -0.004134375 0.0256889791062
402 1 -0.023034375 -0.00125 -0.002953125 0.0137889697212
403 1 -0.023034375 -0.00125 -0.001771875 0.00669214887261
404 1 -0.023034375 -0.00125 -0.000590625 0.00227642230255
405 1 -0.023034375 -0.00125 0.000590625 0.00564913092743
406 1 -0.023034375 -0.00125 0.001771875 0.00333098468733
407 1 -0.023034375 -0.00125 0.002953125 0.00219079659813
408 1 -0.023034375 -0.00125 0.004134375 0.000821762661089
409 1 -0.023034375 -0.00125 0.005315625 0.00017953737354
410 1 -0.023034375 -0.00125 0.006496875 0.00208636527498
411 1 -0.023034375 -0.00125 0.007678125 0.00634411263868
412 1 -0.023034375 -0.00125 0.008859375 0.00999273624525
413 1 -0.023034375 -0.00125 0.010040625 0.0355172964027
414 1 -0.023034375 -0.00125 0.011221875 0.0320063456688
415 1 -0.023034375 -0.00125 0.012403125 0.0408994172176
416 1 -0.023034375 -0.00125 0.013584375 0.0433270149257
417 1 -0.023034375 -0.00125 0.014765625 0.0360303145374
418 1 -0.023034375 -0.00125 0.015946875 0.0178911599191
419 1 -0.023034375 -0.00125 0.017128125 0.00207962953779
420 1 -0.023034375 -0.00125 0.018309375 0.00037031466047
421 1 -0.023034375 -0.00125 0.019490625 0.000122100536012
422 1 -0.023034375 -0.00125 0.020671875 1.64735149017e-05
423 1 -0.023034375 -0.00125 0.021853125 1.17404647953e-11
424 1 -0.023034375 -0.00125 0.023034375 2.37849586e-20
425 1 -0.023034375 -0.00125 0.024215625 7.84631809023e-21
426 1 -0.023034375 -0.00125 0.025396875 8.17918369799e-21
427 1 -0.023034375 -0.00125 0.026578125 6.67698168545e-21
428 1 -0.023034375 -0.00125 0.027759375 1.44312676556e-11
429 1 -0.021853125 -0.00125 -0.028940625 1.59335068185e-05
430 1 -0.021853125 -0.00125 -0.027759375 5.94977171891e-05
431 1 -0.021853125 -0.00125 -0.026578125 2.93823892948e-05
432 1 -0.021853125 -0.00125 -0.025396875 0.00166536342246
433 1 -0.021853125 -0.00125 -0.024215625 0.00467485475263
434 1 -0.021853125 -0.00125 -0.023034375 0.010477495213
435 1 -0.021853125 -0.00125 -0.021853125 0.0424466384678
436 1 -0.021853125 -0.00125 -0.020671875 0.0573681585847
437 1 -0.021853125 -0.00125 -0.019490625 0.0470360312702
438 1 -0.021853125 -0.00125 -0.018309375 0.0352658248299
439 1 -0.021853125 -0.00125 -0.017128125 0.0332400935722
440 1 -0.021853125 -0.00125 -0.015946875 0.020850353658
441 1 -0.021853125 -0.00125 -0.014765625 0.00758940178628
442 1 -0.021853125 -0.00125 -0.013584375 0.00224505286939
443 1 -0.021853125 -0.00125 -0.012403125 0.000615271609537
444 1 -0.021853125 -0.00125 -0.011221875 0.00437609075077
445 1 -0.021853125 -0.00125 -0.010040625 0.0109233584662
446 1 -0.021853125 -0.00125 -0.008859375 0.0129735199039
447 1 -0.021853125 -0.00125 -0.007678125 0.0462026143242
448 1 -0.021853125 -0.00125 -0.006496875 0.0264076066557
449 1 -0.021853125 -0.00125 -0.005315625 0.0144447397703
450 1 -0.021853125 -0.00125 -0.004134375 0.0174580671795
451 1 -0.021853125 -0.00125 -0.002953125 0.0164949105165
452 1 -0.021853125 -0.00125 -0.001771875 0.0152618185514
453 1 -0.021853125 -0.00125 -0.000590625 0.00753936538404
454 1 -0.021853125 -0.00125 0.000590625 0.00870760611021
455 1 -0.021853125 -0.00125 0.001771875 0.00833890438614
456 1 -0.021853125 -0.00125 0.002953125 0.017477938183
457 1 -0.021853125 -0.00125 0.004134375 0.0205902316358
458 1 -0.021853125 -0.00125 0.005315625 0.0112378859853
459 1 -0.021853125 -0.00125 0.006496875 0.00428314658627
460 1 -0.021853125 -0.00125 0.007678125 0.0128856676988
461 1 -0.021853125 -0.00125 0.008859375 0.0279066503014
462 1 -0.021853125 -0.00125 0.010040625 0.0382478640456
463 1 -0.021853125 -0.00125 0.011221875 0.0479760121912
464 1 -0.021853125 -0.00125 0.012403125 0.0576205290695
465 1 -0.021853125 -0.00125 0.013584375 0.0570084979605
466 1 -0.021853125 -0.00125 0.014765625 0.0449908114461
467 1 -0.021853125 -0.00125 0.015946875 0.0441185869011
468 1 -0.021853125 -0.00125 0.017128125 0.0161699044991
469 1 -0.021853125 -0.00125 0.018309375 0.00254362041564
470 1 -0.021853125 -0.00125 0.019490625 0.00459204796148
471 1 -0.021853125 -0.00125 0.020671875 0.000502005219029
472 1 -0.021853125 -0.00125 0.021853125 0.000108540354639
473 1 -0.021853125 -0.00125 0.023034375 3.04707350724e-08
474 1 -0.021853125 -0.00125 0.024215625 3.97262942807e-11
475 1 -0.021853125 -0.00125 0.025396875 6.1203355574e-07
476 1 -0.021853125 -0.00125 0.026578125 7.53139666453e-08
477 1 -0.021853125 -0.00125 0.027759375 1.28243418831e-06
478 1 -0.021853125 -0.00125 0.028940625 1.20228391889e-07
479 1 -0.020671875 -0.00125 -0.030121875 0.000105377194742
480 1 -0.020671875 -0.00125 -0.028940625 2.23491286225e-05
481 1 -0.020671875 -0.00125 -0.027759375 5.85202735238e-05
482 1 -0.020671875 -0.00125 -0.026578125 0.000120373302729
483 1 -0.020671875 -0.00125 -0.025396875 0.000895395637459
484 1 -0.020671875 -0.00125 -0.024215625 0.00163096765174
485 1 -0.020671875 -0.00125 -0.023034375 0.00873877016634
486 1 -0.020671875 -0.00125 -0.021853125 0.0429465002612
487 1 -0.020671875 -0.00125 -0.020671875 0.0431210340681
488 1 -0.020671875 -0.00125 -0.019490625 0.0724280640144
489 1 -0.020671875 -0.00125 -0.018309375 0.0876812696383
490 1 -0.020671875 -0.00125 -0.017128125 0.0643718509945
491 1 -0.020671875 -0.00125 -0.015946875 0.0644797424967
492 1 -0.020671875 -0.00125 -0.014765625 0.0185713737272
493 1 -0.020671875 -0.00125 -0.013584375 0.00684085156736
494 1 -0.020671875 -0.00125 -0.012403125 0.00741742392501
495 1 -0.020671875 -0.00125 -0.011221875 0.00362612655281
496 1 -0.020671875 -0.00125 -0.010040625 0.0122622491
497 1 -0.020671875 -0.00125 -0.008859375 0.00859323832649
498 1 -0.020671875 -0.00125 -0.007678125 0.0129779622054
499 1 -0.020671875 -0.00125 -0.006496875 0.0335506130163
500 1 -0.020671875 -0.00125 -0.005315625 0.0375194084811
501 1 -0.020671875 -0.00125 -0.004134375 0.0318802267531
502 1 -0.020671875 -0.00125 -0.002953125 0.0264747230344
503 1 -0.020671875 -0.00125 -0.001771875 0.0686316210186
504 1 -0.020671875 -0.00125 -0.000590625 0.0282039642373
505 1 -0.020671875 -0.00125 0.000590625 0.035351233145
506 1 -0.020671875 -0.00125 0.001771875 0.0522744026971
507 1 -0.020671875 -0.00125 0.002953125 0.0385506009117
508 1 -0.020671875 -0.00125 0.004134375 0.0516949953953
509 1 -0.020671875 -0.00125 0.005315625 0.0115738703791
510 1 -0.020671875 -0.00125 0.006496875 0.0172062821725
511 1 -0.020671875 -0.00125 0.007678125 0.0288401272865
512 1 -0.020671875 -0.00125 0.008859375 0.064176350068
513 1 -0.020671875 -0.00125 0.010040625 0.0704806680882
514 1 -0.020671875 -0.00125 0.011221875 0.132668863175
515 1 -0.020671875 -0.00125 0.012403125 0.130727867951
516 1 -0.020671875 -0.00125 0.013584375 0.0708484928526