ITEM: TIMESTEP
0
ITEM: NUMBER OF ATOMS
3080
ITEM: BOX BOUNDS ss ss ss
-3.7007399999999996e-02 3.7007399999999996e-02
-2.0002499999999999e-03 2.5000000000000004e-07
-3.7007399999999996e-02 3.7007399999999996e-02
ITEM: ATOMS id type x y z c_1
0 1 -0.037209375 -0.00125 -0.000590625 0.400203925956
1 1 -0.036028125 -0.00125 -0.007678125 1.02089612515e-05
2 1 -0.036028125 -0.00125 -0.006496875 4.86053856786e-06
3 1 -0.036028125 -0.00125 -0.005315625 1.96918126962e-07
4 1 -0.036028125 -0.00125 -0.004134375 2.5142006785e-08
5 1 -0.036028125 -0.00125 -0.002953125 0.00601917680778
6 1 -0.036028125 -0.00125 -0.001771875 0.0283678505504
7 1 -0.036028125 -0.00125 -0.000590625 0.106759723055
8 1 -0.036028125 -0.00125 0.000590625 0.0877346145018
9 1 -0.036028125 -0.00125 0.001771875 0.217792401803
10 1 -0.036028125 -0.00125 0.002953125 0.00545247570149
11 1 -0.036028125 -0.00125 0.004134375 3.43350972225e-06
12 1 -0.036028125 -0.00125 0.005315625 6.98850700831e-10
13 1 -0.036028125 -0.00125 0.006496875 4.13177160736e-05
14 1 -0.036028125 -0.00125 0.007678125 3.29231528103e-05
15 1 -0.034846875 -0.00125 -0.011221875 0.00197577448508
16 1 -0.034846875 -0.00125 -0.010040625 0.000259145834624
17 1 -0.034846875 -0.00125 -0.008859375 0.00403947532222
18 1 -0.034846875 -0.00125 -0.007678125 5.70714434491e-08
19 1 -0.034846875 -0.00125 -0.006496875 9.67006501626e-11
20 1 -0.034846875 -0.00125 -0.005315625 2.27203086706e-12
21 1 -0.034846875 -0.00125 -0.004134375 8.19043781776e-11
22 1 -0.034846875 -0.00125 -0.002953125 0.000262612669543
23 1 -0.034846875 -0.00125 -0.001771875 0.0734537811903
24 1 -0.034846875 -0.00125 -0.000590625 0.128038538539
25 1 -0.034846875 -0.00125 0.000590625 0.187928984396
26 1 -0.034846875 -0.00125 0.001771875 0.303104972857
27 1 -0.034846875 -0.00125 0.002953125 0.0112057510778
28 1 -0.034846875 -0.00125 0.004134375 1.22831661241e-08
29 1 -0.034846875 -0.00125 0.005315625 1.33498193709e-11
30 1 -0.034846875 -0.00125 0.006496875 4.93698663489e-09
31 1 -0.034846875 -0.00125 0.007678125 7.92949921506e-05
32 1 -0.034846875 -0.00125 0.008859375 0.0313422370328
33 1 -0.034846875 -0.00125 0.010040625 0.00109099740115
34 1 -0.034846875 -0.00125 0.011221875 0.00969439064433
35 1 -0.033665625 -0.00125 -0.013584375 5.94847112295e-07
36 1 -0.033665625 -0.00125 -0.012403125 0.0096219455489
37 1 -0.033665625 -0.00125 -0.011221875 0.00167163025937
38 1 -0.033665625 -0.00125 -0.010040625 0.000402902264594
39 1 -0.033665625 -0.00125 -0.008859375 0.000271752188696
40 1 -0.033665625 -0.00125 -0.007678125 1.47622198816e-07
41 1 -0.033665625 -0.00125 -0.006496875 1.00030518971e-11
42 1 -0.033665625 -0.00125 -0.005315625 5.51732246594e-15
43 1 -0.033665625 -0.00125 -0.004134375 2.0959020985e-05
44 1 -0.033665625 -0.00125 -0.002953125 0.00940164147528
45 1 -0.033665625 -0.00125 -0.001771875 0.0712199254106
46 1 -0.033665625 -0.00125 -0.000590625 0.105960844977
47 1 -0.033665625 -0.00125 0.000590625 0.150972796091
48 1 -0.033665625 -0.00125 0.001771875 0.199716525551
49 1 -0.033665625 -0.00125 0.002953125 0.03069643118
50 1 -0.033665625 -0.00125 0.004134375 3.45839056716e-09
51 1 -0.033665625 -0.00125 0.005315625 5.79159635513e-09
52 1 -0.033665625 -0.00125 0.006496875 1.08471716221e-07
53 1 -0.033665625 -0.00125 0.007678125 0.000476992247965
54 1 -0.033665625 -0.00125 0.008859375 0.0108193992421
55 1 -0.033665625 -0.00125 0.010040625 0.0038586835075
56 1 -0.033665625 -0.00125 0.011221875 0.0076819176289
57 1 -0.033665625 -0.00125 0.012403125 0.0962261473673
58 1 -0.033665625 -0.00125 0.013584375 0.0028105718909
59 1 -0.032484375 -0.00125 -0.018309375 6.18441294495e-06
60 1 -0.032484375 -0.00125 -0.017128125 0.000102287967328
61 1 -0.032484375 -0.00125 -0.015946875 0.00029686137755
62 1 -0.032484375 -0.00125 -0.014765625 3.86156287559e-06
63 1 -0.032484375 -0.00125 -0.013584375 3.53064116905e-07
64 1 -0.032484375 -0.00125 -0.012403125 0.000923328105831
65 1 -0.032484375 -0.00125 -0.011221875 0.00044435803572
66 1 -0.032484375 -0.00125 -0.010040625 0.000174907687193
67 1 -0.032484375 -0.00125 -0.008859375 0.00016238693095
68 1 -0.032484375 -0.00125 -0.007678125 0.000159628306328
69 1 -0.032484375 -0.00125 -0.006496875 3.11885362177e-10
70 1 -0.032484375 -0.00125 -0.005315625 9.68108709276e-14
71 1 -0.032484375 -0.00125 -0.004134375 2.03906123716e-06
72 1 -0.032484375 -0.00125 -0.002953125 0.00165267231301
73 1 -0.032484375 -0.00125 -0.001771875 0.0287668573205
74 1 -0.032484375 -0.00125 -0.000590625 0.0512782267036
75 1 -0.032484375 -0.00125 0.000590625 0.0765258272343
76 1 -0.032484375 -0.00125 0.001771875 0.01879543909
77 1 -0.032484375 -0.00125 0.002953125 0.00260911427144
78 1 -0.032484375 -0.00125 0.004134375 2.53523959258e-12
79 1 -0.032484375 -0.00125 0.005315625 9.94328361825e-08
80 1 -0.032484375 -0.00125 0.006496875 2.82218124625e-12
81 1 -0.032484375 -0.00125 0.007678125 9.84019598449e-06
82 1 -0.032484375 -0.00125 0.008859375 0.00411963933552
83 1 -0.032484375 -0.00125 0.010040625 0.00552822538279
84 1 -0.032484375 -0.00125 0.011221875 0.0402149589134
85 1 -0.032484375 -0.00125 0.012403125 0.0358768072775
86 1 -0.032484375 -0.00125 0.013584375 4.85706632761e-07
87 1 -0.032484375 -0.00125 0.014765625 0.00298456483528
88 1 -0.032484375 -0.00125 0.015946875 0.0185112824698
89 1 -0.032484375 -0.00125 0.017128125 0.0148467731506
90 1 -0.032484375 -0.00125 0.018309375 0.00527024270674
91 1 -0.031303125 -0.00125 -0.019490625 1.21069852003e-05
92 1 -0.031303125 -0.00125 -0.018309375 2.85572932768e-05
93 1 -0.031303125 -0.00125 -0.017128125 0.000347498556788
94 1 -0.031303125 -0.00125 -0.015946875 2.7379971972e-05
95 1 -0.031303125 -0.00125 -0.014765625 0.000124193636292
96 1 -0.031303125 -0.00125 -0.013584375 7.50563970809e-05
97 1 -0.031303125 -0.00125 -0.012403125 0.000463423858679
98 1 -0.031303125 -0.00125 -0.011221875 0.000755276140332
99 1 -0.031303125 -0.00125 -0.010040625 0.000586253832706
100 1 -0.031303125 -0.00125 -0.008859375 4.10381751177e-05
101 1 -0.031303125 -0.00125 -0.007678125 6.6946380841e-06
102 1 -0.031303125 -0.00125 -0.006496875 3.5918749807e-07
103 1 -0.031303125 -0.00125 -0.005315625 5.99301581144e-07
104 1 -0.031303125 -0.00125 -0.004134375 1.36277969589e-07
105 1 -0.031303125 -0.00125 -0.002953125 9.37519391717e-05
106 1 -0.031303125 -0.00125 -0.001771875 0.00185745125055
107 1 -0.031303125 -0.00125 -0.000590625 0.0189742954916
108 1 -0.031303125 -0.00125 0.000590625 0.0248649498342
109 1 -0.031303125 -0.00125 0.001771875 0.00383919673833
110 1 -0.031303125 -0.00125 0.002953125 0.000246290594523
111 1 -0.031303125 -0.00125 0.004134375 1.88074003535e-05
112 1 -0.031303125 -0.00125 0.005315625 2.19945115625e-06
113 1 -0.031303125 -0.00125 0.006496875 4.99575873634e-08
114 1 -0.031303125 -0.00125 0.007678125 7.04974807421e-06
115 1 -0.031303125 -0.00125 0.008859375 1.76732420698e-05
116 1 -0.031303125 -0.00125 0.010040625 0.000142226019547
117 1 -0.031303125 -0.00125 0.011221875 0.0036745110227
118 1 -0.031303125 -0.00125 0.012403125 0.00566361004182
119 1 -0.031303125 -0.00125 0.013584375 0.000925951327361
120 1 -0.031303125 -0.00125 0.014765625 0.00597949621552
121 1 -0.031303125 -0.00125 0.015946875 0.0176357569131
122 1 -0.031303125 -0.00125 0.017128125 0.0117599424648
123 1 -0.031303125 -0.00125 0.018309375 0.00710064370182
124 1 -0.031303125 -0.00125 0.019490625 9.28437696974e-05
125 1 -0.030121875 -0.00125 -0.020671875 1.35286772809e-09
126 1 -0.030121875 -0.00125 -0.019490625 6.23949602899e-07
127 1 -0.030121875 -0.00125 -0.018309375 0.000140270935175
128 1 -0.030121875 -0.00125 -0.017128125 0.000128589954958
129 1 -0.030121875 -0.00125 -0.015946875 0.000332513825235
130 1 -0.030121875 -0.00125 -0.014765625 8.44205222313e-05
131 1 -0.030121875 -0.00125 -0.013584375 0.00106311671747
132 1 -0.030121875 -0.00125 -0.012403125 4.48959434944e-05
133 1 -0.030121875 -0.00125 -0.011221875 8.520695915e-05
134 1 -0.030121875 -0.00125 -0.010040625 6.79305831744e-07
135 1 -0.030121875 -0.00125 -0.008859375 1.42234392502e-06
136 1 -0.030121875 -0.00125 -0.007678125 4.42121694169e-08
137 1 -0.030121875 -0.00125 -0.006496875 1.85657722752e-07
138 1 -0.030121875 -0.00125 -0.005315625 3.24156931839e-06
139 1 -0.030121875 -0.00125 -0.004134375 7.75481125252e-10
140 1 -0.030121875 -0.00125 -0.002953125 4.63551062733e-06
141 1 -0.030121875 -0.00125 -0.001771875 0.000992039691909
142 1 -0.030121875 -0.00125 -0.000590625 0.000608242331319
143 1 -0.030121875 -0.00125 0.000590625 0.0047416244864
144 1 -0.030121875 -0.00125 0.001771875 0.00130699067501
145 1 -0.030121875 -0.00125 0.002953125 0.000145456149564
146 1 -0.030121875 -0.00125 0.004134375 4.67476265973e-07
147 1 -0.030121875 -0.00125 0.005315625 1.84068380337e-09
148 1 -0.030121875 -0.00125 0.006496875 1.1329922605e-08
149 1 -0.030121875 -0.00125 0.007678125 1.59126476051e-07
150 1 -0.030121875 -0.00125 0.008859375 1.03770061512e-06
151 1 -0.030121875 -0.00125 0.010040625 7.05779071503e-05
152 1 -0.030121875 -0.00125 0.011221875 9.68521416482e-06
153 1 -0.030121875 -0.00125 0.012403125 0.000822824928867
154 1 -0.030121875 -0.00125 0.013584375 0.00194648924987
155 1 -0.030121875 -0.00125 0.014765625 0.0134352574091
156 1 -0.030121875 -0.00125 0.015946875 0.0242133767071
157 1 -0.030121875 -0.00125 0.017128125 0.0350635374379
158 1 -0.030121875 -0.00125 0.018309375 0.0175612549938
159 1 -0.030121875 -0.00125 0.019490625 0.0022387116965
160 1 -0.030121875 -0.00125 0.020671875 2.23128357387e-05
161 1 -0.028940625 -0.00125 -0.021853125 7.44827180099e-05
162 1 -0.028940625 -0.00125 -0.020671875 2.08939633922e-06
163 1 -0.028940625 -0.00125 -0.019490625 8.47955514742e-05
164 1 -0.028940625 -0.00125 -0.018309375 0.000136661365489
165 1 -0.028940625 -0.00125 -0.017128125 0.000891592031366
166 1 -0.028940625 -0.00125 -0.015946875 0.00162137218102
167 1 -0.028940625 -0.00125 -0.014765625 0.000949684897486
168 1 -0.028940625 -0.00125 -0.013584375 0.00018828568813
169 1 -0.028940625 -0.00125 -0.012403125 3.70603821711e-07
170 1 -0.028940625 -0.00125 -0.011221875 6.08053898303e-07
171 1 -0.028940625 -0.00125 -0.010040625 3.64976845669e-07
172 1 -0.028940625 -0.00125 -0.008859375 5.92812681827e-08
173 1 -0.028940625 -0.00125 -0.007678125 1.47022821018e-07
174 1 -0.028940625 -0.00125 -0.006496875 2.66660118639e-06
175 1 -0.028940625 -0.00125 -0.005315625 2.43605213676e-06
176 1 -0.028940625 -0.00125 -0.004134375 3.73166033366e-05
177 1 -0.028940625 -0.00125 -0.002953125 9.33708440965e-06
178 1 -0.028940625 -0.00125 -0.001771875 2.2573942688e-05
179 1 -0.028940625 -0.00125 -0.000590625 0.000120437829607
180 1 -0.028940625 -0.00125 0.000590625 2.03632485943e-05
181 1 -0.028940625 -0.00125 0.001771875 8.1225941393e-05
182 1 -0.028940625 -0.00125 0.002953125 2.98244669731e-05
183 1 -0.028940625 -0.00125 0.004134375 3.34361735498e-06
184 1 -0.028940625 -0.00125 0.005315625 6.02906496793e-08
185 1 -0.028940625 -0.00125 0.006496875 1.85038579596e-06
186 1 -0.028940625 -0.00125 0.007678125 2.87172665912e-08
187 1 -0.028940625 -0.00125 0.008859375 5.68421867102e-08
188 1 -0.028940625 -0.00125 0.010040625 9.18771748445e-08
189 1 -0.028940625 -0.00125 0.011221875 1.27531447812e-06
190 1 -0.028940625 -0.00125 0.012403125 1.0235636233e-05
191 1 -0.028940625 -0.00125 0.013584375 4.71600947687e-05
192 1 -0.028940625 -0.00125 0.014765625 0.00204107430362
193 1 -0.028940625 -0.00125 0.015946875 0.0339730330519
194 1 -0.028940625 -0.00125 0.017128125 0.0380461880787
195 1 -0.028940625 -0.00125 0.018309375 0.0224191701315
196 1 -0.028940625 -0.00125 0.019490625 0.00145251070763
197 1 -0.028940625 -0.00125 0.020671875 0.000451947226901
198 1 -0.028940625 -0.00125 0.021853125 0.00215914576062
199 1 -0.027759375 -0.00125 -0.024215625 6.14662683549e-17
200 1 -0.027759375 -0.00125 -0.023034375 3.07650909909e-08
201 1 -0.027759375 -0.00125 -0.021853125 0.00012955804919
202 1 -0.027759375 -0.00125 -0.020671875 1.46802682804e-07
203 1 -0.027759375 -0.00125 -0.019490625 1.07944628549e-06
204 1 -0.027759375 -0.00125 -0.018309375 0.000228002978297
205 1 -0.027759375 -0.00125 -0.017128125 0.00270976553191
206 1 -0.027759375 -0.00125 -0.015946875 0.00475471157522
207 1 -0.027759375 -0.00125 -0.014765625 0.00207475372183
208 1 -0.027759375 -0.00125 -0.013584375 3.29441961264e-05
209 1 -0.027759375 -0.00125 -0.012403125 1.18315147817e-05
210 1 -0.027759375 -0.00125 -0.011221875 2.17113569272e-07
211 1 -0.027759375 -0.00125 -0.010040625 2.04924779637e-06
212 1 -0.027759375 -0.00125 -0.008859375 7.94865147086e-07
213 1 -0.027759375 -0.00125 -0.007678125 2.52440530616e-06
214 1 -0.027759375 -0.00125 -0.006496875 7.65515143778e-07
215 1 -0.027759375 -0.00125 -0.005315625 6.07990418036e-06
216 1 -0.027759375 -0.00125 -0.004134375 0.000268887379987
217 1 -0.027759375 -0.00125 -0.002953125 0.000361338525867
218 1 -0.027759375 -0.00125 -0.001771875 0.000266220602071
219 1 -0.027759375 -0.00125 -0.000590625 0.00433518797739
220 1 -0.027759375 -0.00125 0.000590625 0.00369833594405
221 1 -0.027759375 -0.00125 0.001771875 0.000177964462665
222 1 -0.027759375 -0.00125 0.002953125 1.93899973536e-05
223 1 -0.027759375 -0.00125 0.004134375 1.59216829744e-08
224 1 -0.027759375 -0.00125 0.005315625 2.46984550477e-07
225 1 -0.027759375 -0.00125 0.006496875 5.30282861239e-07
226 1 -0.027759375 -0.00125 0.007678125 1.34460677688e-08
227 1 -0.027759375 -0.00125 0.008859375 8.43616231511e-06
228 1 -0.027759375 -0.00125 0.010040625 8.4109706854e-07
229 1 -0.027759375 -0.00125 0.011221875 8.37018315348e-08
230 1 -0.027759375 -0.00125 0.012403125 4.96871903317e-05
231 1 -0.027759375 -0.00125 0.013584375 0.000235718548847
232 1 -0.027759375 -0.00125 0.014765625 0.0055517202148
233 1 -0.027759375 -0.00125 0.015946875 0.00466193052614
234 1 -0.027759375 -0.00125 0.017128125 0.0233893340313
235 1 -0.027759375 -0.00125 0.018309375 0.0482603038528
236 1 -0.027759375 -0.00125 0.019490625 0.00228817364913
237 1 -0.027759375 -0.00125 0.020671875 0.000132898247183
238 1 -0.027759375 -0.00125 0.021853125 0.000605390778453
239 1 -0.027759375 -0.00125 0.023034375 1.32658244938e-06
240 1 -0.027759375 -0.00125 0.024215625 7.91375500981e-10
241 1 -0.026578125 -0.00125 -0.026578125 2.41971718293e-12
242 1 -0.026578125 -0.00125 -0.025396875 5.74421920091e-17
243 1 -0.026578125 -0.00125 -0.024215625 1.2569977965e-16
244 1 -0.026578125 -0.00125 -0.023034375 1.25795968662e-11
245 1 -0.026578125 -0.00125 -0.021853125 1.77490566335e-08
246 1 -0.026578125 -0.00125 -0.020671875 2.6870191786e-06
247 1 -0.026578125 -0.00125 -0.019490625 8.90916162439e-05
248 1 -0.026578125 -0.00125 -0.018309375 0.00059421395098
249 1 -0.026578125 -0.00125 -0.017128125 0.00401639800064
250 1 -0.026578125 -0.00125 -0.015946875 0.00529278772025
251 1 -0.026578125 -0.00125 -0.014765625 0.000412548781445
252 1 -0.026578125 -0.00125 -0.013584375 0.00103021000641
253 1 -0.026578125 -0.00125 -0.012403125 2.04629984131e-05
254 1 -0.026578125 -0.00125 -0.011221875 1.13658701363e-05
255 1 -0.026578125 -0.00125 -0.010040625 4.26755125365e-07
256 1 -0.026578125 -0.00125 -0.008859375 4.89512417968e-06
257 1 -0.026578125 -0.00125 -0.007678125 4.61292798486e-05
258 1 -0.026578125 -0.00125 -0.006496875 6.29910641403e-05
259 1 -0.026578125 -0.00125 -0.005315625 0.000290708854441
260 1 -0.026578125 -0.00125 -0.004134375 0.00118268520973
261 1 -0.026578125 -0.00125 -0.002953125 0.00161738919981
262 1 -0.026578125 -0.00125 -0.001771875 0.0028443894896
263 1 -0.026578125 -0.00125 -0.000590625 0.00883076054464
264 1 -0.026578125 -0.00125 0.000590625 0.00458162482209
265 1 -0.026578125 -0.00125 0.001771875 0.00184056897317
266 1 -0.026578125 -0.00125 0.002953125 0.00287197069814
267 1 -0.026578125 -0.00125 0.004134375 0.000137151119616
268 1 -0.026578125 -0.00125 0.005315625 0.000148285379965
269 1 -0.026578125 -0.00125 0.006496875 1.10291718793e-08
270 1 -0.026578125 -0.00125 0.007678125 2.16712103284e-07
271 1 -0.026578125 -0.00125 0.008859375 3.7509213998e-06
272 1 -0.026578125 -0.00125 0.010040625 8.31636787337e-06
273 1 -0.026578125 -0.00125 0.011221875 1.24651310935e-05
274 1 -0.026578125 -0.00125 0.012403125 1.11206735141e-05
275 1 -0.026578125 -0.00125 0.013584375 0.00135688108533
276 1 -0.026578125 -0.00125 0.014765625 0.00812394825934
277 1 -0.026578125 -0.00125 0.015946875 0.0264950368173
278 1 -0.026578125 -0.00125 0.017128125 0.0479298756097
279 1 -0.026578125 -0.00125 0.018309375 0.0478522954864
280 1 -0.026578125 -0.00125 0.019490625 0.00387871517446
281 1 -0.026578125 -0.00125 0.020671875 0.000761348742421
282 1 -0.026578125 -0.00125 0.021853125 5.79992152405e-05
283 1 -0.026578125 -0.00125 0.023034375 6.38009762319e-08
284 1 -0.026578125 -0.00125 0.024215625 8.90347307968e-08
285 1 -0.026578125 -0.00125 0.025396875 1.39282809907e-08
286 1 -0.026578125 -0.00125 0.026578125 3.38455663317e-06
287 1 -0.025396875 -0.00125 -0.026578125 2.39371612527e-15
288 1 -0.025396875 -0.00125 -0.025396875 1.23702000114e-20
289 1 -0.025396875 -0.00125 -0.024215625 1.06663381109e-12
290 1 -0.025396875 -0.00125 -0.023034375 1.35892674008e-14
291 1 -0.025396875 -0.00125 -0.021853125 1.97017868797e-07
292 1 -0.025396875 -0.00125 -0.020671875 3.02917223728e-05
293 1 -0.025396875 -0.00125 -0.019490625 0.000325090486952
294 1 -0.025396875 -0.00125 -0.018309375 0.00362799326658
295 1 -0.025396875 -0.00125 -0.017128125 0.00495518714693
296 1 -0.025396875 -0.00125 -0.015946875 0.00378831100454
297 1 -0.025396875 -0.00125 -0.014765625 0.0153110533613
298 1 -0.025396875 -0.00125 -0.013584375 0.00850727710654
299 1 -0.025396875 -0.00125 -0.012403125 0.000749448202689
300 1 -0.025396875 -0.00125 -0.011221875 0.0041294594636
301 1 -0.025396875 -0.00125 -0.010040625 0.000546833265405
302 1 -0.025396875 -0.00125 -0.008859375 0.000333289565457
303 1 -0.025396875 -0.00125 -0.007678125 2.65887008948e-06
304 1 -0.025396875 -0.00125 -0.006496875 0.000858300193689
305 1 -0.025396875 -0.00125 -0.005315625 0.00124263315523
306 1 -0.025396875 -0.00125 -0.004134375 0.00619355013487
307 1 -0.025396875 -0.00125 -0.002953125 0.00165645592472
308 1 -0.025396875 -0.00125 -0.001771875 0.000710557145156
309 1 -0.025396875 -0.00125 -0.000590625 0.0110275084387
310 1 -0.025396875 -0.00125 0.000590625 0.00714293233462
311 1 -0.025396875 -0.00125 0.001771875 0.00451972599423
312 1 -0.025396875 -0.00125 0.002953125 0.000720528378922
313 1 -0.025396875 -0.00125 0.004134375 0.000583457490856
314 1 -0.025396875 -0.00125 0.005315625 0.00276197374882
315 1 -0.025396875 -0.00125 0.006496875 0.000669938166119
316 1 -0.025396875 -0.00125 0.007678125 0.000143077267345
317 1 -0.025396875 -0.00125 0.008859375 2.71535098153e-05
318 1 -0.025396875 -0.00125 0.010040625 8.05258737091e-08
319 1 -0.025396875 -0.00125 0.011221875 7.84991817289e-06
320 1 -0.025396875 -0.00125 0.012403125 2.1737974244e-05
321 1 -0.025396875 -0.00125 0.013584375 4.72496765992e-05
322 1 -0.025396875 -0.00125 0.014765625 0.00552297205469
323 1 -0.025396875 -0.00125 0.015946875 0.0379897135541
324 1 -0.025396875 -0.00125 0.017128125 0.0362296296599
325 1 -0.025396875 -0.00125 0.018309375 0.0218594387068
326 1 -0.025396875 -0.00125 0.019490625 0.00951300917814
327 1 -0.025396875 -0.00125 0.020671875 0.001052635238
328 1 -0.025396875 -0.00125 0.021853125 0.00021273954758
329 1 -0.025396875 -0.00125 0.023034375 7.00451521373e-05
330 1 -0.025396875 -0.00125 0.024215625 5.20614227146e-07
331 1 -0.025396875 -0.00125 0.025396875 6.92042752709e-05
332 1 -0.025396875 -0.00125 0.026578125 8.83989459619e-13
333 1 -0.024215625 -0.00125 -0.027759375 7.85241889863e-10
334 1 -0.024215625 -0.00125 -0.026578125 2.14766949531e-10
335 1 -0.024215625 -0.00125 -0.025396875 2.52737430875e-11
336 1 -0.024215625 -0.00125 -0.024215625 4.94504428995e-07
337 1 -0.024215625 -0.00125 -0.023034375 5.31340285809e-07
338 1 -0.024215625 -0.00125 -0.021853125 6.6364680513e-05
339 1 -0.024215625 -0.00125 -0.020671875 0.000392678536529
340 1 -0.024215625 -0.00125 -0.019490625 0.00206073956959
341 1 -0.024215625 -0.00125 -0.018309375 0.00111207019376
342 1 -0.024215625 -0.00125 -0.017128125 0.00477589978805
343 1 -0.024215625 -0.00125 -0.015946875 0.0175738742089
344 1 -0.024215625 -0.00125 -0.014765625 0.0158901204949
345 1 -0.024215625 -0.00125 -0.013584375 0.00455183537772
346 1 -0.024215625 -0.00125 -0.012403125 0.00163122852741
347 1 -0.024215625 -0.00125 -0.011221875 0.00126601714004
348 1 -0.024215625 -0.00125 -0.010040625 0.00264943480991
349 1 -0.024215625 -0.00125 -0.008859375 0.000601401883102
350 1 -0.024215625 -0.00125 -0.007678125 2.79671663476e-05
351 1 -0.024215625 -0.00125 -0.006496875 0.000466187107781
352 1 -0.024215625 -0.00125 -0.005315625 0.00464498678092
353 1 -0.024215625 -0.00125 -0.004134375 0.0034451975282
354 1 -0.024215625 -0.00125 -0.002953125 0.00533927928204
355 1 -0.024215625 -0.00125 -0.001771875 0.0110862443204
356 1 -0.024215625 -0.00125 -0.000590625 0.0158824261996
357 1 -0.024215625 -0.00125 0.000590625 0.00865081874235
358 1 -0.024215625 -0.00125 0.001771875 0.00766976608918
359 1 -0.024215625 -0.00125 0.002953125 0.000335833098763
360 1 -0.024215625 -0.00125 0.004134375 0.00217782378639
361 1 -0.024215625 -0.00125 0.005315625 0.00122099598313
362 1 -0.024215625 -0.00125 0.006496875 0.00343547306528
363 1 -0.024215625 -0.00125 0.007678125 0.000995662369444
364 1 -0.024215625 -0.00125 0.008859375 8.45469012206e-05
365 1 -0.024215625 -0.00125 0.010040625 0.000182348699057
366 1 -0.024215625 -0.00125 0.011221875 8.39487703131e-06
367 1 -0.024215625 -0.00125 0.012403125 4.58358519815e-05
368 1 -0.024215625 -0.00125 0.013584375 0.000771048645624
369 1 -0.024215625 -0.00125 0.014765625 0.00721070928774
370 1 -0.024215625 -0.00125 0.015946875 0.0329154172812
371 1 -0.024215625 -0.00125 0.017128125 0.047365645481
372 1 -0.024215625 -0.00125 0.018309375 0.0227190961228
373 1 -0.024215625 -0.00125 0.019490625 0.00510348413662
374 1 -0.024215625 -0.00125 0.020671875 0.00308168359809
375 1 -0.024215625 -0.00125 0.021853125 0.00309619321655
376 1 -0.024215625 -0.00125 0.023034375 0.000179787826201
377 1 -0.024215625 -0.00125 0.024215625 3.65766490228e-07
378 1 -0.024215625 -0.00125 0.025396875 1.0052833995e-05
379 1 -0.024215625 -0.00125 0.026578125 1.12839949385e-05
380 1 -0.024215625 -0.00125 0.027759375 2.90268630197e-06
381 1 -0.023034375 -0.00125 -0.027759375 7.68597430548e-13
382 1 -0.023034375 -0.00125 -0.026578125 1.9111297153e-07
383 1 -0.023034375 -0.00125 -0.025396875 9.05097735946e-05
384 1 -0.023034375 -0.00125 -0.024215625 9.31136328529e-06
385 1 -0.023034375 -0.00125 -0.023034375 0.00140193417441
386 1 -0.023034375 -0.00125 -0.021853125 0.000236447163737
387 1 -0.023034375 -0.00125 -0.020671875 0.00295687396864
388 1 -0.023034375 -0.00125 -0.019490625 0.00370560841288
389 1 -0.023034375 -0.00125 -0.018309375 0.00341083372241
390 1 -0.023034375 -0.00125 -0.017128125 0.0168541879692
391 1 -0.023034375 -0.00125 -0.015946875 0.0332499713762
392 1 -0.023034375 -0.00125 -0.014765625 0.0175793248452
393 1 -0.023034375 -0.00125 -0.013584375 0.0228479998045
394 1 -0.023034375 -0.00125 -0.012403125 0.00532197769216
395 1 -0.023034375 -0.00125 -0.011221875 0.00347474912551
396 1 -0.023034375 -0.00125 -0.010040625 0.00992074111948
397 1 -0.023034375 -0.00125 -0.008859375 0.00739363742941
398 1 -0.023034375 -0.00125 -0.007678125 0.00212854109685
399 1 -0.023034375 -0.00125 -0.006496875 0.00341861472402
400 1 -0.023034375 -0.00125 -0.005315625 0.00983254885015
401 1 -0.023034375 -0.00125 -0.004134375 0.00360903790967
402 1 -0.023034375 -0.00125 -0.002953125 0.00717957122558
403 1 -0.023034375 -0.00125 -0.001771875 0.0217484263059
404 1 -0.023034375 -0.00125 -0.000590625 0.0122053299125
405 1 -0.023034375 -0.00125 0.000590625 0.0430108097091
406 1 -0.023034375 -0.00125 0.001771875 0.0117217697117
407 1 -0.023034375 -0.00125 0.002953125 0.0232772277717
408 1 -0.023034375 -0.00125 0.004134375 0.0138339511978
409 1 -0.023034375 -0.00125 0.005315625 0.0133482736534
410 1 -0.023034375 -0.00125 0.006496875 0.00871344670241
411 1 -0.023034375 -0.00125 0.007678125 0.0101730564426
412 1 -0.023034375 -0.00125 0.008859375 0.00158093746713
413 1 -0.023034375 -0.00125 0.010040625 0.000585152957988
414 1 -0.023034375 -0.00125 0.011221875 0.000660305968533
415 1 -0.023034375 -0.00125 0.012403125 0.00030617267105
416 1 -0.023034375 -0.00125 0.013584375 0.00438526799086
417 1 -0.023034375 -0.00125 0.014765625 0.0140039064874
418 1 -0.023034375 -0.00125 0.015946875 0.0337933468734
419 1 -0.023034375 -0.00125 0.017128125 0.0247379448759
420 1 -0.023034375 -0.00125 0.018309375 0.0343559666169
421 1 -0.023034375 -0.00125 0.019490625 0.0184354905146
422 1 -0.023034375 -0.00125 0.020671875 0.0230301773517
423 1 -0.023034375 -0.00125 0.021853125 0.017093552556
424 1 -0.023034375 -0.00125 0.023034375 0.00334824020656
425 1 -0.023034375 -0.00125 0.024215625 0.000264133782627
426 1 -0.023034375 -0.00125 0.025396875 1.37784184556e-05
427 1 -0.023034375 -0.00125 0.026578125 3.43729384625e-05
428 1 -0.023034375 -0.00125 0.027759375 2.37063529257e-05
429 1 -0.021853125 -0.00125 -0.028940625 2.36059982205e-05
430 1 -0.021853125 -0.00125 -0.027759375 9.21925983005e-05
431 1 -0.021853125 -0.00125 -0.026578125 1.47325658136e-06
432 1 -0.021853125 -0.00125 -0.025396875 0.000100067867347
433 1 -0.021853125 -0.00125 -0.024215625 0.000702907685507
434 1 -0.021853125 -0.00125 -0.023034375 0.000849477450459
435 1 -0.021853125 -0.00125 -0.021853125 0.00177716743679
436 1 -0.021853125 -0.00125 -0.020671875 0.00584328940908
437 1 -0.021853125 -0.00125 -0.019490625 0.00882335274553
438 1 -0.021853125 -0.00125 -0.018309375 0.00932549911249
439 1 -0.021853125 -0.00125 -0.017128125 0.026476978569
440 1 -0.021853125 -0.00125 -0.015946875 0.0596845041441
441 1 -0.021853125 -0.00125 -0.014765625 0.0394349149522
442 1 -0.021853125 -0.00125 -0.013584375 0.0466072216171
443 1 -0.021853125 -0.00125 -0.012403125 0.0340862751229
444 1 -0.021853125 -0.00125 -0.011221875 0.0238245669453
445 1 -0.021853125 -0.00125 -0.010040625 0.014330499102
446 1 -0.021853125 -0.00125 -0.008859375 0.0120017209734
447 1 -0.021853125 -0.00125 -0.007678125 0.0235319508535
448 1 -0.021853125 -0.00125 -0.006496875 0.0109887843737
449 1 -0.021853125 -0.00125 -0.005315625 0.0258148312958
450 1 -0.021853125 -0.00125 -0.004134375 0.0259585109554
451 1 -0.021853125 -0.00125 -0.002953125 0.0349558761725
452 1 -0.021853125 -0.00125 -0.001771875 0.0403114199677
453 1 -0.021853125 -0.00125 -0.000590625 0.0311099495925
454 1 -0.021853125 -0.00125 0.000590625 0.027178085584
455 1 -0.021853125 -0.00125 0.001771875 0.0197710166604
456 1 -0.021853125 -0.00125 0.002953125 0.0515771931994
457 1 -0.021853125 -0.00125 0.004134375 0.0404013838761
458 1 -0.021853125 -0.00125 0.005315625 0.02827732215
459 1 -0.021853125 -0.00125 0.006496875 0.00874360708342
460 1 -0.021853125 -0.00125 0.007678125 0.00449708238916
461 1 -0.021853125 -0.00125 0.008859375 0.0111933570662
462 1 -0.021853125 -0.00125 0.010040625 0.00672944046291
463 1 -0.021853125 -0.00125 0.011221875 0.00961795725015
464 1 -0.021853125 -0.00125 0.012403125 0.00960629937534
465 1 -0.021853125 -0.00125 0.013584375 0.0158509254351
466 1 -0.021853125 -0.00125 0.014765625 0.0383111905858
467 1 -0.021853125 -0.00125 0.015946875 0.0782304034842
468 1 -0.021853125 -0.00125 0.017128125 0.0686347723525
469 1 -0.021853125 -0.00125 0.018309375 0.0524299078913
470 1 -0.021853125 -0.00125 0.019490625 0.0294285675548
471 1 -0.021853125 -0.00125 0.020671875 0.0211720202368
472 1 -0.021853125 -0.00125 0.021853125 0.0218720432218
473 1 -0.021853125 -0.00125 0.023034375 0.00610196316261
474 1 -0.021853125 -0.00125 0.024215625 0.00184712064117
475 1 -0.021853125 -0.00125 0.025396875 0.000470901980597
476 1 -0.021853125 -0.00125 0.026578125 4.09965633165e-05
477 1 -0.021853125 -0.00125 0.027759375 0.00100150661122
478 1 -0.021853125 -0.00125 0.028940625 0.000799139427065
479 1 -0.020671875 -0.00125 -0.030121875 4.31763504047e-08
480 1 -0.020671875 -0.00125 -0.028940625 1.81228897255e-07
481 1 -0.020671875 -0.00125 -0.027759375 4.35820022011e-06
482 1 -0.020671875 -0.00125 -0.026578125 1.73055638418e-05
483 1 -0.020671875 -0.00125 -0.025396875 1.2479038262e-05
484 1 -0.020671875 -0.00125 -0.024215625 7.00615169866e-05
485 1 -0.020671875 -0.00125 -0.023034375 0.00333777306604
486 1 -0.020671875 -0.00125 -0.021853125 0.002505191734
487 1 -0.020671875 -0.00125 -0.020671875 0.00810308101557
488 1 -0.020671875 -0.00125 -0.019490625 0.0373448584885
489 1 -0.020671875 -0.00125 -0.018309375 0.0237509201006
490 1 -0.020671875 -0.00125 -0.017128125 0.0629457679698
491 1 -0.020671875 -0.00125 -0.015946875 0.0876274748336
492 1 -0.020671875 -0.00125 -0.014765625 0.0646248924515
493 1 -0.020671875 -0.00125 -0.013584375 0.118476500604
494 1 -0.020671875 -0.00125 -0.012403125 0.0578594884153
495 1 -0.020671875 -0.00125 -0.011221875 0.109553878199
496 1 -0.020671875 -0.00125 -0.010040625 0.0457201344608
497 1 -0.020671875 -0.00125 -0.008859375 0.0282875491254
498 1 -0.020671875 -0.00125 -0.007678125 0.0326748143575
499 1 -0.020671875 -0.00125 -0.006496875 0.0148121772517
500 1 -0.020671875 -0.00125 -0.005315625 0.0408261550061
501 1 -0.020671875 -0.00125 -0.004134375 0.0616142623807
502 1 -0.020671875 -0.00125 -0.002953125 0.0528725009454
503 1 -0.020671875 -0.00125 -0.001771875 0.0611216222554
504 1 -0.020671875 -0.00125 -0.000590625 0.0369812083099
505 1 -0.020671875 -0.00125 0.000590625 0.0552309661353
506 1 -0.020671875 -0.00125 0.001771875 0.0770733207121
507 1 -0.020671875 -0.00125 0.002953125 0.0479031482071
508 1 -0.020671875 -0.00125 0.004134375 0.0716302790586
509 1 -0.020671875 -0.00125 0.005315625 0.0706958762024
510 1 -0.020671875 -0.00125 0.006496875 0.0417787422513
511 1 -0.020671875 -0.00125 0.007678125 0.0321278400579
512 1 -0.020671875 -0.00125 0.008859375 0.0301441455649
513 1 -0.020671875 -0.00125 0.010040625 0.0136282796685
514 1 -0.020671875 -0.00125 0.011221875 0.0110559670518
515 1 -0.020671875 -0.00125 0.012403125 0.0450183610691
516 1 -0.020671875 -0.00125 0.013584375 0.0579588585494
517 1 -0.020671875 -0.00125 0.014765625 0.0944832938966