ITEM: TIMESTEP
0
ITEM: NUMBER OF ATOMS
3080
ITEM: BOX BOUNDS ss ss ss
-3.7007399999999996e-02 3.7007399999999996e-02
-2.0002499999999999e-03 2.5000000000000004e-07
-3.7007399999999996e-02 3.7007399999999996e-02
ITEM: ATOMS id type x y z c_1
0 1 -0.037209375 -0.00125 -0.000590625 0.91266698516
1 1 -0.036028125 -0.00125 -0.007678125 0.000330003253845
2 1 -0.036028125 -0.00125 -0.006496875 1.0994810662e-06
3 1 -0.036028125 -0.00125 -0.005315625 1.81991193616e-10
4 1 -0.036028125 -0.00125 -0.004134375 7.37143013822e-08
5 1 -0.036028125 -0.00125 -0.002953125 0.0345562157663
6 1 -0.036028125 -0.00125 -0.001771875 0.208553818093
7 1 -0.036028125 -0.00125 -0.000590625 0.216607045992
8 1 -0.036028125 -0.00125 0.000590625 0.0489938007231
9 1 -0.036028125 -0.00125 0.001771875 0.0466637289267
10 1 -0.036028125 -0.00125 0.002953125 2.63916114892e-05
11 1 -0.036028125 -0.00125 0.004134375 5.45544352234e-12
12 1 -0.036028125 -0.00125 0.005315625 1.916386262e-14
13 1 -0.036028125 -0.00125 0.006496875 2.43608454297e-08
14 1 -0.036028125 -0.00125 0.007678125 1.29119247391e-06
15 1 -0.034846875 -0.00125 -0.011221875 0.0102089171259
16 1 -0.034846875 -0.00125 -0.010040625 0.00674118289092
17 1 -0.034846875 -0.00125 -0.008859375 0.104041714102
18 1 -0.034846875 -0.00125 -0.007678125 4.15715937393e-05
19 1 -0.034846875 -0.00125 -0.006496875 2.74513081357e-06
20 1 -0.034846875 -0.00125 -0.005315625 1.55283658123e-10
21 1 -0.034846875 -0.00125 -0.004134375 3.63753850668e-09
22 1 -0.034846875 -0.00125 -0.002953125 0.020265529944
23 1 -0.034846875 -0.00125 -0.001771875 0.252607707495
24 1 -0.034846875 -0.00125 -0.000590625 0.198709520971
25 1 -0.034846875 -0.00125 0.000590625 0.0866496200991
26 1 -0.034846875 -0.00125 0.001771875 0.0256696257681
27 1 -0.034846875 -0.00125 0.002953125 0.00011503809804
28 1 -0.034846875 -0.00125 0.004134375 9.67971173819e-16
29 1 -0.034846875 -0.00125 0.005315625 4.05941054158e-21
30 1 -0.034846875 -0.00125 0.006496875 1.10788630541e-14
31 1 -0.034846875 -0.00125 0.007678125 3.12852380434e-07
32 1 -0.034846875 -0.00125 0.008859375 0.00871580178835
33 1 -0.034846875 -0.00125 0.010040625 4.66473304456e-05
34 1 -0.034846875 -0.00125 0.011221875 0.000371506593926
35 1 -0.033665625 -0.00125 -0.013584375 0.000148978389291
36 1 -0.033665625 -0.00125 -0.012403125 0.0957830941825
37 1 -0.033665625 -0.00125 -0.011221875 0.0235845379356
38 1 -0.033665625 -0.00125 -0.010040625 0.0109524337149
39 1 -0.033665625 -0.00125 -0.008859375 0.0295190003171
40 1 -0.033665625 -0.00125 -0.007678125 0.000792548930116
41 1 -0.033665625 -0.00125 -0.006496875 4.23285591032e-06
42 1 -0.033665625 -0.00125 -0.005315625 2.21991897562e-09
43 1 -0.033665625 -0.00125 -0.004134375 0.00281233277463
44 1 -0.033665625 -0.00125 -0.002953125 0.0511480747937
45 1 -0.033665625 -0.00125 -0.001771875 0.218892101828
46 1 -0.033665625 -0.00125 -0.000590625 0.252618322155
47 1 -0.033665625 -0.00125 0.000590625 0.0660815116706
48 1 -0.033665625 -0.00125 0.001771875 0.0130762601501
49 1 -0.033665625 -0.00125 0.002953125 0.00033849165398
50 1 -0.033665625 -0.00125 0.004134375 1.49818447462e-14
51 1 -0.033665625 -0.00125 0.005315625 2.31087624372e-14
52 1 -0.033665625 -0.00125 0.006496875 2.06083931718e-10
53 1 -0.033665625 -0.00125 0.007678125 2.98936902646e-05
54 1 -0.033665625 -0.00125 0.008859375 0.00272207398494
55 1 -0.033665625 -0.00125 0.010040625 0.000163698542331
56 1 -0.033665625 -0.00125 0.011221875 0.000427868106332
57 1 -0.033665625 -0.00125 0.012403125 0.00490694033656
58 1 -0.033665625 -0.00125 0.013584375 6.23328279085e-07
59 1 -0.032484375 -0.00125 -0.018309375 0.00539327980331
60 1 -0.032484375 -0.00125 -0.017128125 0.00629173728687
61 1 -0.032484375 -0.00125 -0.015946875 0.0144329206383
62 1 -0.032484375 -0.00125 -0.014765625 0.00136821189551
63 1 -0.032484375 -0.00125 -0.013584375 0.000187680601093
64 1 -0.032484375 -0.00125 -0.012403125 0.060036397887
65 1 -0.032484375 -0.00125 -0.011221875 0.0344519819277
66 1 -0.032484375 -0.00125 -0.010040625 0.0148741762612
67 1 -0.032484375 -0.00125 -0.008859375 0.0287913161644
68 1 -0.032484375 -0.00125 -0.007678125 0.00103888690364
69 1 -0.032484375 -0.00125 -0.006496875 4.90974595692e-07
70 1 -0.032484375 -0.00125 -0.005315625 7.59211827083e-09
71 1 -0.032484375 -0.00125 -0.004134375 0.000309937736671
72 1 -0.032484375 -0.00125 -0.002953125 0.0101469668021
73 1 -0.032484375 -0.00125 -0.001771875 0.0408790751435
74 1 -0.032484375 -0.00125 -0.000590625 0.135701084219
75 1 -0.032484375 -0.00125 0.000590625 0.0796898630714
76 1 -0.032484375 -0.00125 0.001771875 0.0333728471042
77 1 -0.032484375 -0.00125 0.002953125 0.00144335028353
78 1 -0.032484375 -0.00125 0.004134375 4.67992251074e-07
79 1 -0.032484375 -0.00125 0.005315625 5.13802713872e-10
80 1 -0.032484375 -0.00125 0.006496875 7.31547166341e-10
81 1 -0.032484375 -0.00125 0.007678125 1.1227367155e-05
82 1 -0.032484375 -0.00125 0.008859375 0.00244217121219
83 1 -0.032484375 -0.00125 0.010040625 0.00113164185958
84 1 -0.032484375 -0.00125 0.011221875 0.00320896297844
85 1 -0.032484375 -0.00125 0.012403125 0.00124256306099
86 1 -0.032484375 -0.00125 0.013584375 1.09902718502e-08
87 1 -0.032484375 -0.00125 0.014765625 5.04116071685e-06
88 1 -0.032484375 -0.00125 0.015946875 4.69341745796e-06
89 1 -0.032484375 -0.00125 0.017128125 9.7540484923e-06
90 1 -0.032484375 -0.00125 0.018309375 2.65110298791e-06
91 1 -0.031303125 -0.00125 -0.019490625 0.00386775328854
92 1 -0.031303125 -0.00125 -0.018309375 0.0134919908827
93 1 -0.031303125 -0.00125 -0.017128125 0.0330640706909
94 1 -0.031303125 -0.00125 -0.015946875 0.0159660103767
95 1 -0.031303125 -0.00125 -0.014765625 0.0198476166805
96 1 -0.031303125 -0.00125 -0.013584375 0.00784062081326
97 1 -0.031303125 -0.00125 -0.012403125 0.0413743476637
98 1 -0.031303125 -0.00125 -0.011221875 0.0417872469624
99 1 -0.031303125 -0.00125 -0.010040625 0.0187673925525
100 1 -0.031303125 -0.00125 -0.008859375 0.00295846877642
101 1 -0.031303125 -0.00125 -0.007678125 0.000259439279522
102 1 -0.031303125 -0.00125 -0.006496875 1.82016337726e-05
103 1 -0.031303125 -0.00125 -0.005315625 5.41132228609e-06
104 1 -0.031303125 -0.00125 -0.004134375 5.40174043892e-07
105 1 -0.031303125 -0.00125 -0.002953125 0.000170347032807
106 1 -0.031303125 -0.00125 -0.001771875 0.00397207809921
107 1 -0.031303125 -0.00125 -0.000590625 0.0550152330506
108 1 -0.031303125 -0.00125 0.000590625 0.0396232356018
109 1 -0.031303125 -0.00125 0.001771875 0.00692798557425
110 1 -0.031303125 -0.00125 0.002953125 0.00284057127596
111 1 -0.031303125 -0.00125 0.004134375 0.000297968161664
112 1 -0.031303125 -0.00125 0.005315625 8.26230612926e-06
113 1 -0.031303125 -0.00125 0.006496875 1.79097624334e-07
114 1 -0.031303125 -0.00125 0.007678125 4.29009844142e-05
115 1 -0.031303125 -0.00125 0.008859375 9.50703154574e-05
116 1 -0.031303125 -0.00125 0.010040625 0.000149381319663
117 1 -0.031303125 -0.00125 0.011221875 0.000703866047033
118 1 -0.031303125 -0.00125 0.012403125 0.00357615021671
119 1 -0.031303125 -0.00125 0.013584375 9.63635842467e-05
120 1 -0.031303125 -0.00125 0.014765625 2.44867030064e-05
121 1 -0.031303125 -0.00125 0.015946875 7.4062317301e-06
122 1 -0.031303125 -0.00125 0.017128125 1.18044993083e-07
123 1 -0.031303125 -0.00125 0.018309375 7.82952605761e-07
124 1 -0.031303125 -0.00125 0.019490625 4.74793334639e-10
125 1 -0.030121875 -0.00125 -0.020671875 1.63202239716e-05
126 1 -0.030121875 -0.00125 -0.019490625 0.00131580165518
127 1 -0.030121875 -0.00125 -0.018309375 0.0113598112649
128 1 -0.030121875 -0.00125 -0.017128125 0.0328526782993
129 1 -0.030121875 -0.00125 -0.015946875 0.0465964366339
130 1 -0.030121875 -0.00125 -0.014765625 0.0174107837969
131 1 -0.030121875 -0.00125 -0.013584375 0.0056204087048
132 1 -0.030121875 -0.00125 -0.012403125 0.00915859687258
133 1 -0.030121875 -0.00125 -0.011221875 0.00132286406268
134 1 -0.030121875 -0.00125 -0.010040625 9.59684423365e-05
135 1 -0.030121875 -0.00125 -0.008859375 7.29867679016e-06
136 1 -0.030121875 -0.00125 -0.007678125 6.81670016685e-07
137 1 -0.030121875 -0.00125 -0.006496875 4.86472809481e-09
138 1 -0.030121875 -0.00125 -0.005315625 1.90973263889e-06
139 1 -0.030121875 -0.00125 -0.004134375 1.5368267833e-08
140 1 -0.030121875 -0.00125 -0.002953125 6.78701777742e-06
141 1 -0.030121875 -0.00125 -0.001771875 0.00373091012698
142 1 -0.030121875 -0.00125 -0.000590625 0.00469887647567
143 1 -0.030121875 -0.00125 0.000590625 0.00506699859171
144 1 -0.030121875 -0.00125 0.001771875 0.00521112117063
145 1 -0.030121875 -0.00125 0.002953125 0.0016976328144
146 1 -0.030121875 -0.00125 0.004134375 0.000205954230095
147 1 -0.030121875 -0.00125 0.005315625 0.000128287971425
148 1 -0.030121875 -0.00125 0.006496875 1.07379841396e-06
149 1 -0.030121875 -0.00125 0.007678125 1.60306393645e-05
150 1 -0.030121875 -0.00125 0.008859375 8.14693391895e-06
151 1 -0.030121875 -0.00125 0.010040625 0.000446362439139
152 1 -0.030121875 -0.00125 0.011221875 0.0003015570828
153 1 -0.030121875 -0.00125 0.012403125 0.00597090012323
154 1 -0.030121875 -0.00125 0.013584375 0.0069944790293
155 1 -0.030121875 -0.00125 0.014765625 0.00113020627071
156 1 -0.030121875 -0.00125 0.015946875 3.61322546884e-05
157 1 -0.030121875 -0.00125 0.017128125 2.87874848145e-06
158 1 -0.030121875 -0.00125 0.018309375 2.4077090963e-07
159 1 -0.030121875 -0.00125 0.019490625 7.21748364261e-14
160 1 -0.030121875 -0.00125 0.020671875 1.14961844733e-21
161 1 -0.028940625 -0.00125 -0.021853125 0.00286248686241
162 1 -0.028940625 -0.00125 -0.020671875 0.000787103666057
163 1 -0.028940625 -0.00125 -0.019490625 0.00479435085525
164 1 -0.028940625 -0.00125 -0.018309375 0.0120837610632
165 1 -0.028940625 -0.00125 -0.017128125 0.032848912009
166 1 -0.028940625 -0.00125 -0.015946875 0.0360171868466
167 1 -0.028940625 -0.00125 -0.014765625 0.0208811011274
168 1 -0.028940625 -0.00125 -0.013584375 0.00226338763684
169 1 -0.028940625 -0.00125 -0.012403125 0.000380320788773
170 1 -0.028940625 -0.00125 -0.011221875 0.000105215200033
171 1 -0.028940625 -0.00125 -0.010040625 3.14392874731e-06
172 1 -0.028940625 -0.00125 -0.008859375 7.80668487382e-08
173 1 -0.028940625 -0.00125 -0.007678125 3.39400062007e-08
174 1 -0.028940625 -0.00125 -0.006496875 6.56642961736e-07
175 1 -0.028940625 -0.00125 -0.005315625 1.24465334422e-06
176 1 -0.028940625 -0.00125 -0.004134375 4.24438491902e-05
177 1 -0.028940625 -0.00125 -0.002953125 0.000144693659807
178 1 -0.028940625 -0.00125 -0.001771875 0.00107350031396
179 1 -0.028940625 -0.00125 -0.000590625 0.0050662500734
180 1 -0.028940625 -0.00125 0.000590625 0.001983698592
181 1 -0.028940625 -0.00125 0.001771875 0.000691033977562
182 1 -0.028940625 -0.00125 0.002953125 0.000392832917281
183 1 -0.028940625 -0.00125 0.004134375 5.03503241802e-05
184 1 -0.028940625 -0.00125 0.005315625 4.91428745037e-06
185 1 -0.028940625 -0.00125 0.006496875 0.000186527728004
186 1 -0.028940625 -0.00125 0.007678125 4.49062502084e-06
187 1 -0.028940625 -0.00125 0.008859375 1.92133641793e-07
188 1 -0.028940625 -0.00125 0.010040625 1.36190243613e-05
189 1 -0.028940625 -0.00125 0.011221875 0.000431231756854
190 1 -0.028940625 -0.00125 0.012403125 0.00271859333473
191 1 -0.028940625 -0.00125 0.013584375 0.00511887819414
192 1 -0.028940625 -0.00125 0.014765625 0.00125966812432
193 1 -0.028940625 -0.00125 0.015946875 0.000251741351536
194 1 -0.028940625 -0.00125 0.017128125 3.92974260061e-05
195 1 -0.028940625 -0.00125 0.018309375 1.45797384535e-06
196 1 -0.028940625 -0.00125 0.019490625 3.88589201947e-13
197 1 -0.028940625 -0.00125 0.020671875 7.62088568234e-15
198 1 -0.028940625 -0.00125 0.021853125 3.01094414725e-09
199 1 -0.027759375 -0.00125 -0.024215625 7.87922754101e-07
200 1 -0.027759375 -0.00125 -0.023034375 3.87345758657e-05
201 1 -0.027759375 -0.00125 -0.021853125 0.00352361486006
202 1 -0.027759375 -0.00125 -0.020671875 0.000191403000023
203 1 -0.027759375 -0.00125 -0.019490625 0.00167506566156
204 1 -0.027759375 -0.00125 -0.018309375 0.0165421079194
205 1 -0.027759375 -0.00125 -0.017128125 0.0394102640304
206 1 -0.027759375 -0.00125 -0.015946875 0.00823781168876
207 1 -0.027759375 -0.00125 -0.014765625 0.00283276274737
208 1 -0.027759375 -0.00125 -0.013584375 0.000211802144884
209 1 -0.027759375 -0.00125 -0.012403125 0.000125931807866
210 1 -0.027759375 -0.00125 -0.011221875 3.64476745421e-06
211 1 -0.027759375 -0.00125 -0.010040625 1.0119027126e-06
212 1 -0.027759375 -0.00125 -0.008859375 9.66471036478e-08
213 1 -0.027759375 -0.00125 -0.007678125 5.30928046567e-06
214 1 -0.027759375 -0.00125 -0.006496875 4.31030090503e-06
215 1 -0.027759375 -0.00125 -0.005315625 0.000180348539632
216 1 -0.027759375 -0.00125 -0.004134375 0.00085437145901
217 1 -0.027759375 -0.00125 -0.002953125 0.00321975221646
218 1 -0.027759375 -0.00125 -0.001771875 0.00259412425447
219 1 -0.027759375 -0.00125 -0.000590625 0.0102880501329
220 1 -0.027759375 -0.00125 0.000590625 0.00811358184619
221 1 -0.027759375 -0.00125 0.001771875 0.00805071634905
222 1 -0.027759375 -0.00125 0.002953125 0.00037677045065
223 1 -0.027759375 -0.00125 0.004134375 1.83554536249e-05
224 1 -0.027759375 -0.00125 0.005315625 4.40314712645e-06
225 1 -0.027759375 -0.00125 0.006496875 6.85937904299e-05
226 1 -0.027759375 -0.00125 0.007678125 3.94024101717e-05
227 1 -0.027759375 -0.00125 0.008859375 0.000418821407628
228 1 -0.027759375 -0.00125 0.010040625 0.000634387347709
229 1 -0.027759375 -0.00125 0.011221875 0.00209923923198
230 1 -0.027759375 -0.00125 0.012403125 0.014552268863
231 1 -0.027759375 -0.00125 0.013584375 0.0160425992476
232 1 -0.027759375 -0.00125 0.014765625 0.0093024925792
233 1 -0.027759375 -0.00125 0.015946875 0.000385124244885
234 1 -0.027759375 -0.00125 0.017128125 2.42999973779e-05
235 1 -0.027759375 -0.00125 0.018309375 5.08567044192e-07
236 1 -0.027759375 -0.00125 0.019490625 5.89785900256e-11
237 1 -0.027759375 -0.00125 0.020671875 1.48375874917e-10
238 1 -0.027759375 -0.00125 0.021853125 7.39567755456e-10
239 1 -0.027759375 -0.00125 0.023034375 4.85704717163e-12
240 1 -0.027759375 -0.00125 0.024215625 7.51699752942e-27
241 1 -0.026578125 -0.00125 -0.026578125 3.04710056642e-08
242 1 -0.026578125 -0.00125 -0.025396875 1.13193364848e-07
243 1 -0.026578125 -0.00125 -0.024215625 4.01249900323e-07
244 1 -0.026578125 -0.00125 -0.023034375 1.72743092362e-06
245 1 -0.026578125 -0.00125 -0.021853125 4.12739820706e-05
246 1 -0.026578125 -0.00125 -0.020671875 0.00064812775161
247 1 -0.026578125 -0.00125 -0.019490625 0.00730785852431
248 1 -0.026578125 -0.00125 -0.018309375 0.0188076432711
249 1 -0.026578125 -0.00125 -0.017128125 0.039821909474
250 1 -0.026578125 -0.00125 -0.015946875 0.019287999409
251 1 -0.026578125 -0.00125 -0.014765625 0.00116916892729
252 1 -0.026578125 -0.00125 -0.013584375 0.000342373783588
253 1 -0.026578125 -0.00125 -0.012403125 9.26971100657e-06
254 1 -0.026578125 -0.00125 -0.011221875 4.4042976058e-06
255 1 -0.026578125 -0.00125 -0.010040625 2.65432230133e-07
256 1 -0.026578125 -0.00125 -0.008859375 9.67763065267e-06
257 1 -0.026578125 -0.00125 -0.007678125 9.22559623306e-05
258 1 -0.026578125 -0.00125 -0.006496875 0.000295739335767
259 1 -0.026578125 -0.00125 -0.005315625 0.00388566519189
260 1 -0.026578125 -0.00125 -0.004134375 0.00497956288127
261 1 -0.026578125 -0.00125 -0.002953125 0.00928246045106
262 1 -0.026578125 -0.00125 -0.001771875 0.0173827427827
263 1 -0.026578125 -0.00125 -0.000590625 0.0166188880819
264 1 -0.026578125 -0.00125 0.000590625 0.0231829257969
265 1 -0.026578125 -0.00125 0.001771875 0.0188442149897
266 1 -0.026578125 -0.00125 0.002953125 0.0109069995447
267 1 -0.026578125 -0.00125 0.004134375 0.000974811093557
268 1 -0.026578125 -0.00125 0.005315625 0.000831560170594
269 1 -0.026578125 -0.00125 0.006496875 1.80952210118e-06
270 1 -0.026578125 -0.00125 0.007678125 6.35875337447e-06
271 1 -0.026578125 -0.00125 0.008859375 0.000455201924583
272 1 -0.026578125 -0.00125 0.010040625 0.00294470240062
273 1 -0.026578125 -0.00125 0.011221875 0.0177438384392
274 1 -0.026578125 -0.00125 0.012403125 0.0101085047699
275 1 -0.026578125 -0.00125 0.013584375 0.0191863606289
276 1 -0.026578125 -0.00125 0.014765625 0.0077422574198
277 1 -0.026578125 -0.00125 0.015946875 0.00188680209959
278 1 -0.026578125 -0.00125 0.017128125 0.000897879900713
279 1 -0.026578125 -0.00125 0.018309375 7.00666854689e-05
280 1 -0.026578125 -0.00125 0.019490625 3.02861103566e-07
281 1 -0.026578125 -0.00125 0.020671875 6.690499438e-09
282 1 -0.026578125 -0.00125 0.021853125 9.70693056163e-12
283 1 -0.026578125 -0.00125 0.023034375 2.93138122777e-19
284 1 -0.026578125 -0.00125 0.024215625 8.73595323055e-18
285 1 -0.026578125 -0.00125 0.025396875 5.60894340845e-16
286 1 -0.026578125 -0.00125 0.026578125 5.83399729122e-16
287 1 -0.025396875 -0.00125 -0.026578125 2.992826657e-12
288 1 -0.025396875 -0.00125 -0.025396875 2.41045616612e-06
289 1 -0.025396875 -0.00125 -0.024215625 2.60336395584e-05
290 1 -0.025396875 -0.00125 -0.023034375 2.31884008851e-05
291 1 -0.025396875 -0.00125 -0.021853125 0.000403964635115
292 1 -0.025396875 -0.00125 -0.020671875 0.00365447075792
293 1 -0.025396875 -0.00125 -0.019490625 0.00783760185001
294 1 -0.025396875 -0.00125 -0.018309375 0.0345711227176
295 1 -0.025396875 -0.00125 -0.017128125 0.040044220316
296 1 -0.025396875 -0.00125 -0.015946875 0.0265428138106
297 1 -0.025396875 -0.00125 -0.014765625 0.0119490899686
298 1 -0.025396875 -0.00125 -0.013584375 0.00133187118395
299 1 -0.025396875 -0.00125 -0.012403125 8.63035852009e-05
300 1 -0.025396875 -0.00125 -0.011221875 0.000532325290495
301 1 -0.025396875 -0.00125 -0.010040625 0.000223418182513
302 1 -0.025396875 -0.00125 -0.008859375 0.000542654254409
303 1 -0.025396875 -0.00125 -0.007678125 3.20572368161e-05
304 1 -0.025396875 -0.00125 -0.006496875 0.00338849729198
305 1 -0.025396875 -0.00125 -0.005315625 0.0142146488633
306 1 -0.025396875 -0.00125 -0.004134375 0.00428490736745
307 1 -0.025396875 -0.00125 -0.002953125 0.00364025129714
308 1 -0.025396875 -0.00125 -0.001771875 0.00793185098865
309 1 -0.025396875 -0.00125 -0.000590625 0.00945551426078
310 1 -0.025396875 -0.00125 0.000590625 0.0116895395383
311 1 -0.025396875 -0.00125 0.001771875 0.0131115879009
312 1 -0.025396875 -0.00125 0.002953125 0.00217369441359
313 1 -0.025396875 -0.00125 0.004134375 0.000515313784174
314 1 -0.025396875 -0.00125 0.005315625 0.00222641253388
315 1 -0.025396875 -0.00125 0.006496875 0.0023088160963
316 1 -0.025396875 -0.00125 0.007678125 0.00214732478884
317 1 -0.025396875 -0.00125 0.008859375 0.00518116799643
318 1 -0.025396875 -0.00125 0.010040625 0.00474723107151
319 1 -0.025396875 -0.00125 0.011221875 0.00335387401599
320 1 -0.025396875 -0.00125 0.012403125 0.0216897332032
321 1 -0.025396875 -0.00125 0.013584375 0.0248936299719
322 1 -0.025396875 -0.00125 0.014765625 0.0083139559143
323 1 -0.025396875 -0.00125 0.015946875 0.0029428169877
324 1 -0.025396875 -0.00125 0.017128125 0.00142911694816
325 1 -0.025396875 -0.00125 0.018309375 0.000212617805977
326 1 -0.025396875 -0.00125 0.019490625 1.10758625941e-06
327 1 -0.025396875 -0.00125 0.020671875 4.30156948117e-06
328 1 -0.025396875 -0.00125 0.021853125 4.18939999819e-09
329 1 -0.025396875 -0.00125 0.023034375 2.60639542042e-08
330 1 -0.025396875 -0.00125 0.024215625 5.93123615174e-12
331 1 -0.025396875 -0.00125 0.025396875 1.27044348691e-09
332 1 -0.025396875 -0.00125 0.026578125 1.82627958093e-31
333 1 -0.024215625 -0.00125 -0.027759375 1.19995990633e-07
334 1 -0.024215625 -0.00125 -0.026578125 8.82527377079e-06
335 1 -0.024215625 -0.00125 -0.025396875 4.840531146e-05
336 1 -0.024215625 -0.00125 -0.024215625 0.000970500559671
337 1 -0.024215625 -0.00125 -0.023034375 0.00228833225354
338 1 -0.024215625 -0.00125 -0.021853125 0.00506423996822
339 1 -0.024215625 -0.00125 -0.020671875 0.0110907971132
340 1 -0.024215625 -0.00125 -0.019490625 0.0318794239839
341 1 -0.024215625 -0.00125 -0.018309375 0.017693521805
342 1 -0.024215625 -0.00125 -0.017128125 0.0456673539517
343 1 -0.024215625 -0.00125 -0.015946875 0.0480326090843
344 1 -0.024215625 -0.00125 -0.014765625 0.0272611645708
345 1 -0.024215625 -0.00125 -0.013584375 0.00367182781868
346 1 -0.024215625 -0.00125 -0.012403125 0.00028534197026
347 1 -0.024215625 -0.00125 -0.011221875 0.00049682258023
348 1 -0.024215625 -0.00125 -0.010040625 0.00103089159656
349 1 -0.024215625 -0.00125 -0.008859375 0.000954329937153
350 1 -0.024215625 -0.00125 -0.007678125 0.000224118968064
351 1 -0.024215625 -0.00125 -0.006496875 0.00210868419288
352 1 -0.024215625 -0.00125 -0.005315625 0.0119455650254
353 1 -0.024215625 -0.00125 -0.004134375 0.00728109348841
354 1 -0.024215625 -0.00125 -0.002953125 0.00672326078263
355 1 -0.024215625 -0.00125 -0.001771875 0.0111155970521
356 1 -0.024215625 -0.00125 -0.000590625 0.00584870743497
357 1 -0.024215625 -0.00125 0.000590625 0.00567025915427
358 1 -0.024215625 -0.00125 0.001771875 0.00715126484305
359 1 -0.024215625 -0.00125 0.002953125 0.0007789738762
360 1 -0.024215625 -0.00125 0.004134375 0.00130547484587
361 1 -0.024215625 -0.00125 0.005315625 0.00263370024186
362 1 -0.024215625 -0.00125 0.006496875 0.00698999040313
363 1 -0.024215625 -0.00125 0.007678125 0.00979607231557
364 1 -0.024215625 -0.00125 0.008859375 0.00993752693416
365 1 -0.024215625 -0.00125 0.010040625 0.0332264057654
366 1 -0.024215625 -0.00125 0.011221875 0.0264868733831
367 1 -0.024215625 -0.00125 0.012403125 0.0425881820157
368 1 -0.024215625 -0.00125 0.013584375 0.0319033984921
369 1 -0.024215625 -0.00125 0.014765625 0.0158609706423
370 1 -0.024215625 -0.00125 0.015946875 0.00910792513186
371 1 -0.024215625 -0.00125 0.017128125 0.00314500637966
372 1 -0.024215625 -0.00125 0.018309375 0.000259051067224
373 1 -0.024215625 -0.00125 0.019490625 2.25763369242e-05
374 1 -0.024215625 -0.00125 0.020671875 6.58609749264e-05
375 1 -0.024215625 -0.00125 0.021853125 0.000154952062536
376 1 -0.024215625 -0.00125 0.023034375 5.61239998401e-06
377 1 -0.024215625 -0.00125 0.024215625 1.57336170531e-08
378 1 -0.024215625 -0.00125 0.025396875 1.55455063971e-08
379 1 -0.024215625 -0.00125 0.026578125 2.8592575941e-10
380 1 -0.024215625 -0.00125 0.027759375 6.20421548648e-14
381 1 -0.023034375 -0.00125 -0.027759375 2.25329624746e-08
382 1 -0.023034375 -0.00125 -0.026578125 4.76425164384e-05
383 1 -0.023034375 -0.00125 -0.025396875 0.001516648791
384 1 -0.023034375 -0.00125 -0.024215625 0.00093777628646
385 1 -0.023034375 -0.00125 -0.023034375 0.00631942440117
386 1 -0.023034375 -0.00125 -0.021853125 0.00304106864063
387 1 -0.023034375 -0.00125 -0.020671875 0.0134324147369
388 1 -0.023034375 -0.00125 -0.019490625 0.0294725175546
389 1 -0.023034375 -0.00125 -0.018309375 0.0565542915109
390 1 -0.023034375 -0.00125 -0.017128125 0.0786126091232
391 1 -0.023034375 -0.00125 -0.015946875 0.0706534053683
392 1 -0.023034375 -0.00125 -0.014765625 0.0319131605921
393 1 -0.023034375 -0.00125 -0.013584375 0.011676392449
394 1 -0.023034375 -0.00125 -0.012403125 0.00158667285024
395 1 -0.023034375 -0.00125 -0.011221875 0.00137504240316
396 1 -0.023034375 -0.00125 -0.010040625 0.00591586873
397 1 -0.023034375 -0.00125 -0.008859375 0.00557308537784
398 1 -0.023034375 -0.00125 -0.007678125 0.00608033452717
399 1 -0.023034375 -0.00125 -0.006496875 0.00898064142588
400 1 -0.023034375 -0.00125 -0.005315625 0.0264769068004
401 1 -0.023034375 -0.00125 -0.004134375 0.0239087076002
402 1 -0.023034375 -0.00125 -0.002953125 0.0198422646159
403 1 -0.023034375 -0.00125 -0.001771875 0.0101047262178
404 1 -0.023034375 -0.00125 -0.000590625 0.00856318944064
405 1 -0.023034375 -0.00125 0.000590625 0.0217731442856
406 1 -0.023034375 -0.00125 0.001771875 0.025760985311
407 1 -0.023034375 -0.00125 0.002953125 0.011968615173
408 1 -0.023034375 -0.00125 0.004134375 0.00402864597601
409 1 -0.023034375 -0.00125 0.005315625 0.00582537054478
410 1 -0.023034375 -0.00125 0.006496875 0.0125363161953
411 1 -0.023034375 -0.00125 0.007678125 0.0229565730592
412 1 -0.023034375 -0.00125 0.008859375 0.0403757390369
413 1 -0.023034375 -0.00125 0.010040625 0.0607777903932
414 1 -0.023034375 -0.00125 0.011221875 0.0535856300221
415 1 -0.023034375 -0.00125 0.012403125 0.0433678457304
416 1 -0.023034375 -0.00125 0.013584375 0.0511436483726
417 1 -0.023034375 -0.00125 0.014765625 0.0223845508555
418 1 -0.023034375 -0.00125 0.015946875 0.0190206117438
419 1 -0.023034375 -0.00125 0.017128125 0.00260803566016
420 1 -0.023034375 -0.00125 0.018309375 0.00246627229306
421 1 -0.023034375 -0.00125 0.019490625 0.00049854370357
422 1 -0.023034375 -0.00125 0.020671875 0.00163334159777
423 1 -0.023034375 -0.00125 0.021853125 0.00341687542744
424 1 -0.023034375 -0.00125 0.023034375 0.000629109385836
425 1 -0.023034375 -0.00125 0.024215625 0.000125703110652
426 1 -0.023034375 -0.00125 0.025396875 2.45182134433e-05
427 1 -0.023034375 -0.00125 0.026578125 2.72675279657e-06
428 1 -0.023034375 -0.00125 0.027759375 2.43903030732e-05
429 1 -0.021853125 -0.00125 -0.028940625 0.000201157774326
430 1 -0.021853125 -0.00125 -0.027759375 0.000103087957229
431 1 -0.021853125 -0.00125 -0.026578125 5.29101776841e-06
432 1 -0.021853125 -0.00125 -0.025396875 0.000418321751363
433 1 -0.021853125 -0.00125 -0.024215625 0.00386019622847
434 1 -0.021853125 -0.00125 -0.023034375 0.00309202261771
435 1 -0.021853125 -0.00125 -0.021853125 0.00978498673648
436 1 -0.021853125 -0.00125 -0.020671875 0.0267754082532
437 1 -0.021853125 -0.00125 -0.019490625 0.0455755462758
438 1 -0.021853125 -0.00125 -0.018309375 0.0664428911806
439 1 -0.021853125 -0.00125 -0.017128125 0.090588459721
440 1 -0.021853125 -0.00125 -0.015946875 0.108511433119
441 1 -0.021853125 -0.00125 -0.014765625 0.0833497485558
442 1 -0.021853125 -0.00125 -0.013584375 0.0300307873769
443 1 -0.021853125 -0.00125 -0.012403125 0.0118622869667
444 1 -0.021853125 -0.00125 -0.011221875 0.0122254371201
445 1 -0.021853125 -0.00125 -0.010040625 0.0154478327173
446 1 -0.021853125 -0.00125 -0.008859375 0.0128085109033
447 1 -0.021853125 -0.00125 -0.007678125 0.0382538769724
448 1 -0.021853125 -0.00125 -0.006496875 0.031565858208
449 1 -0.021853125 -0.00125 -0.005315625 0.0457464070728
450 1 -0.021853125 -0.00125 -0.004134375 0.05451759654
451 1 -0.021853125 -0.00125 -0.002953125 0.0675868676616
452 1 -0.021853125 -0.00125 -0.001771875 0.048120025911
453 1 -0.021853125 -0.00125 -0.000590625 0.0172682469063
454 1 -0.021853125 -0.00125 0.000590625 0.0216932449433
455 1 -0.021853125 -0.00125 0.001771875 0.0379905661105
456 1 -0.021853125 -0.00125 0.002953125 0.0644024175593
457 1 -0.021853125 -0.00125 0.004134375 0.0494651239212
458 1 -0.021853125 -0.00125 0.005315625 0.0256422077522
459 1 -0.021853125 -0.00125 0.006496875 0.0151549304524
460 1 -0.021853125 -0.00125 0.007678125 0.0380285453709
461 1 -0.021853125 -0.00125 0.008859375 0.0706912966424
462 1 -0.021853125 -0.00125 0.010040625 0.0922228958434
463 1 -0.021853125 -0.00125 0.011221875 0.0859003561644
464 1 -0.021853125 -0.00125 0.012403125 0.0831478818492
465 1 -0.021853125 -0.00125 0.013584375 0.0837315163509
466 1 -0.021853125 -0.00125 0.014765625 0.0328583970539
467 1 -0.021853125 -0.00125 0.015946875 0.0341388575792
468 1 -0.021853125 -0.00125 0.017128125 0.0167473012055
469 1 -0.021853125 -0.00125 0.018309375 0.00621258651551
470 1 -0.021853125 -0.00125 0.019490625 0.00830512010986
471 1 -0.021853125 -0.00125 0.020671875 0.002507084562
472 1 -0.021853125 -0.00125 0.021853125 0.00606221698532
473 1 -0.021853125 -0.00125 0.023034375 0.00537234153363
474 1 -0.021853125 -0.00125 0.024215625 0.00126358670094
475 1 -0.021853125 -0.00125 0.025396875 0.00161058298152
476 1 -0.021853125 -0.00125 0.026578125 0.00060621563735
477 1 -0.021853125 -0.00125 0.027759375 0.00265940231961
478 1 -0.021853125 -0.00125 0.028940625 0.00161487026208
479 1 -0.020671875 -0.00125 -0.030121875 0.000214947355634
480 1 -0.020671875 -0.00125 -0.028940625 8.4265255116e-05
481 1 -0.020671875 -0.00125 -0.027759375 0.000100164940927
482 1 -0.020671875 -0.00125 -0.026578125 0.000123788790634
483 1 -0.020671875 -0.00125 -0.025396875 0.000780443211284
484 1 -0.020671875 -0.00125 -0.024215625 0.00172378694739
485 1 -0.020671875 -0.00125 -0.023034375 0.00532481466785
486 1 -0.020671875 -0.00125 -0.021853125 0.0132792166507
487 1 -0.020671875 -0.00125 -0.020671875 0.0295321888372
488 1 -0.020671875 -0.00125 -0.019490625 0.0838109560481
489 1 -0.020671875 -0.00125 -0.018309375 0.0824392812678
490 1 -0.020671875 -0.00125 -0.017128125 0.128294869695
491 1 -0.020671875 -0.00125 -0.015946875 0.178043494356
492 1 -0.020671875 -0.00125 -0.014765625 0.143658405983
493 1 -0.020671875 -0.00125 -0.013584375 0.0998978252475
494 1 -0.020671875 -0.00125 -0.012403125 0.0541009658403
495 1 -0.020671875 -0.00125 -0.011221875 0.0467621031611
496 1 -0.020671875 -0.00125 -0.010040625 0.0445269593435
497 1 -0.020671875 -0.00125 -0.008859375 0.0210350026857
498 1 -0.020671875 -0.00125 -0.007678125 0.0213152705623
499 1 -0.020671875 -0.00125 -0.006496875 0.0312980618777
500 1 -0.020671875 -0.00125 -0.005315625 0.0465604497002
501 1 -0.020671875 -0.00125 -0.004134375 0.0859661410508
502 1 -0.020671875 -0.00125 -0.002953125 0.0854926947902
503 1 -0.020671875 -0.00125 -0.001771875 0.0746096675971
504 1 -0.020671875 -0.00125 -0.000590625 0.0434194408237
505 1 -0.020671875 -0.00125 0.000590625 0.051773454741
506 1 -0.020671875 -0.00125 0.001771875 0.0861958185116
507 1 -0.020671875 -0.00125 0.002953125 0.114945683868
508 1 -0.020671875 -0.00125 0.004134375 0.0938832587492
509 1 -0.020671875 -0.00125 0.005315625 0.0574726918879
510 1 -0.020671875 -0.00125 0.006496875 0.0738649918382
511 1 -0.020671875 -0.00125 0.007678125 0.0865927323743
512 1 -0.020671875 -0.00125 0.008859375 0.140002845858
513 1 -0.020671875 -0.00125 0.010040625 0.135822144002
514 1 -0.020671875 -0.00125 0.011221875 0.215293852332
515 1 -0.020671875 -0.00125 0.012403125 0.150207604407
516 1 -0.020671875 -0.00125 0.013584375 0.110722122822
517 1 -0.020671875 -0.00125 0.014765625 0.0580503669733
518 1 -0.020671875 -0.00125 0.015946875 0.0729440654118
519 1 -0.020671875 -0.00125 0.017128125 0.0325980018581