ITEM: TIMESTEP
0
ITEM: NUMBER OF ATOMS
3080
ITEM: BOX BOUNDS ss ss ss
-3.7007399999999996e-02 3.7007399999999996e-02
-2.0002499999999999e-03 2.5000000000000004e-07
-3.7007399999999996e-02 3.7007399999999996e-02
ITEM: ATOMS id type x y z c_1
0 1 -0.037209375 -0.00125 -0.000590625 0.241967713432
1 1 -0.036028125 -0.00125 -0.007678125 0.00324720397936
2 1 -0.036028125 -0.00125 -0.006496875 0.00784449985587
3 1 -0.036028125 -0.00125 -0.005315625 0.0107343607623
4 1 -0.036028125 -0.00125 -0.004134375 0.0103510484931
5 1 -0.036028125 -0.00125 -0.002953125 0.0405616461188
6 1 -0.036028125 -0.00125 -0.001771875 0.0126072900708
7 1 -0.036028125 -0.00125 -0.000590625 0.100735784806
8 1 -0.036028125 -0.00125 0.000590625 0.0367845619851
9 1 -0.036028125 -0.00125 0.001771875 0.110564074595
10 1 -0.036028125 -0.00125 0.002953125 0.0292474369312
11 1 -0.036028125 -0.00125 0.004134375 0.0713119288223
12 1 -0.036028125 -0.00125 0.005315625 0.0024858290367
13 1 -0.036028125 -0.00125 0.006496875 0.0466808797687
14 1 -0.036028125 -0.00125 0.007678125 0.0198882384893
15 1 -0.034846875 -0.00125 -0.011221875 0.000739022342804
16 1 -0.034846875 -0.00125 -0.010040625 0.0160130232843
17 1 -0.034846875 -0.00125 -0.008859375 0.00514111526554
18 1 -0.034846875 -0.00125 -0.007678125 0.00123782878276
19 1 -0.034846875 -0.00125 -0.006496875 5.81027979916e-11
20 1 -0.034846875 -0.00125 -0.005315625 8.00942803146e-07
21 1 -0.034846875 -0.00125 -0.004134375 0.00947607143906
22 1 -0.034846875 -0.00125 -0.002953125 0.0319568996936
23 1 -0.034846875 -0.00125 -0.001771875 0.0103945246207
24 1 -0.034846875 -0.00125 -0.000590625 0.0535860515487
25 1 -0.034846875 -0.00125 0.000590625 0.0864121861765
26 1 -0.034846875 -0.00125 0.001771875 0.0628650618085
27 1 -0.034846875 -0.00125 0.002953125 0.00451088016909
28 1 -0.034846875 -0.00125 0.004134375 0.00440742065669
29 1 -0.034846875 -0.00125 0.005315625 0.0156219038383
30 1 -0.034846875 -0.00125 0.006496875 0.00374397256765
31 1 -0.034846875 -0.00125 0.007678125 0.0728736910866
32 1 -0.034846875 -0.00125 0.008859375 0.146159868776
33 1 -0.034846875 -0.00125 0.010040625 0.0318492655214
34 1 -0.034846875 -0.00125 0.011221875 0.086462845403
35 1 -0.033665625 -0.00125 -0.013584375 0.00106026856698
36 1 -0.033665625 -0.00125 -0.012403125 0.0472689447648
37 1 -0.033665625 -0.00125 -0.011221875 0.0114926259611
38 1 -0.033665625 -0.00125 -0.010040625 0.0678408341011
39 1 -0.033665625 -0.00125 -0.008859375 0.0773755472047
40 1 -0.033665625 -0.00125 -0.007678125 3.44348187341e-05
41 1 -0.033665625 -0.00125 -0.006496875 1.90032581318e-08
42 1 -0.033665625 -0.00125 -0.005315625 0.000297892377171
43 1 -0.033665625 -0.00125 -0.004134375 0.00134484501355
44 1 -0.033665625 -0.00125 -0.002953125 0.0368483893911
45 1 -0.033665625 -0.00125 -0.001771875 0.022232266918
46 1 -0.033665625 -0.00125 -0.000590625 0.0823984823899
47 1 -0.033665625 -0.00125 0.000590625 0.0860815163071
48 1 -0.033665625 -0.00125 0.001771875 0.0400306282837
49 1 -0.033665625 -0.00125 0.002953125 0.0345708634384
50 1 -0.033665625 -0.00125 0.004134375 0.0245365236732
51 1 -0.033665625 -0.00125 0.005315625 0.0241094094399
52 1 -0.033665625 -0.00125 0.006496875 0.0211129606231
53 1 -0.033665625 -0.00125 0.007678125 0.0805346757543
54 1 -0.033665625 -0.00125 0.008859375 0.127244322117
55 1 -0.033665625 -0.00125 0.010040625 0.066045938779
56 1 -0.033665625 -0.00125 0.011221875 0.0816917164155
57 1 -0.033665625 -0.00125 0.012403125 0.159319967108
58 1 -0.033665625 -0.00125 0.013584375 0.0457939699129
59 1 -0.032484375 -0.00125 -0.018309375 4.22219091531e-06
60 1 -0.032484375 -0.00125 -0.017128125 0.00331063661719
61 1 -0.032484375 -0.00125 -0.015946875 0.000406287782782
62 1 -0.032484375 -0.00125 -0.014765625 0.00378902621781
63 1 -0.032484375 -0.00125 -0.013584375 0.00123058453874
64 1 -0.032484375 -0.00125 -0.012403125 0.0122340756865
65 1 -0.032484375 -0.00125 -0.011221875 0.0372177370678
66 1 -0.032484375 -0.00125 -0.010040625 0.0168268603869
67 1 -0.032484375 -0.00125 -0.008859375 0.0372798692442
68 1 -0.032484375 -0.00125 -0.007678125 0.0148024395986
69 1 -0.032484375 -0.00125 -0.006496875 0.00043923610915
70 1 -0.032484375 -0.00125 -0.005315625 0.0257802343191
71 1 -0.032484375 -0.00125 -0.004134375 0.0289504371037
72 1 -0.032484375 -0.00125 -0.002953125 0.033517366976
73 1 -0.032484375 -0.00125 -0.001771875 0.0551893094475
74 1 -0.032484375 -0.00125 -0.000590625 0.15007433387
75 1 -0.032484375 -0.00125 0.000590625 0.148934066224
76 1 -0.032484375 -0.00125 0.001771875 0.100827966823
77 1 -0.032484375 -0.00125 0.002953125 0.0535591640372
78 1 -0.032484375 -0.00125 0.004134375 0.0654033426114
79 1 -0.032484375 -0.00125 0.005315625 0.194659053417
80 1 -0.032484375 -0.00125 0.006496875 0.019544059979
81 1 -0.032484375 -0.00125 0.007678125 0.288825712358
82 1 -0.032484375 -0.00125 0.008859375 0.0798827625
83 1 -0.032484375 -0.00125 0.010040625 0.237482735668
84 1 -0.032484375 -0.00125 0.011221875 0.286625145544
85 1 -0.032484375 -0.00125 0.012403125 0.185233608673
86 1 -0.032484375 -0.00125 0.013584375 0.0630186249679
87 1 -0.032484375 -0.00125 0.014765625 0.083558742702
88 1 -0.032484375 -0.00125 0.015946875 0.34803189975
89 1 -0.032484375 -0.00125 0.017128125 0.150141321243
90 1 -0.032484375 -0.00125 0.018309375 0.309743919346
91 1 -0.031303125 -0.00125 -0.019490625 0.000768797573241
92 1 -0.031303125 -0.00125 -0.018309375 0.00325999249544
93 1 -0.031303125 -0.00125 -0.017128125 0.000290528113193
94 1 -0.031303125 -0.00125 -0.015946875 2.73244609183e-05
95 1 -0.031303125 -0.00125 -0.014765625 0.00529557182513
96 1 -0.031303125 -0.00125 -0.013584375 4.09661205568e-05
97 1 -0.031303125 -0.00125 -0.012403125 0.00257002238745
98 1 -0.031303125 -0.00125 -0.011221875 0.013184654163
99 1 -0.031303125 -0.00125 -0.010040625 0.0239737995483
100 1 -0.031303125 -0.00125 -0.008859375 0.064085322043
101 1 -0.031303125 -0.00125 -0.007678125 0.0476779330065
102 1 -0.031303125 -0.00125 -0.006496875 0.045449094134
103 1 -0.031303125 -0.00125 -0.005315625 0.0216739894259
104 1 -0.031303125 -0.00125 -0.004134375 0.0231712815926
105 1 -0.031303125 -0.00125 -0.002953125 0.0985199204709
106 1 -0.031303125 -0.00125 -0.001771875 0.146882867565
107 1 -0.031303125 -0.00125 -0.000590625 0.0899353969953
108 1 -0.031303125 -0.00125 0.000590625 0.0847378845776
109 1 -0.031303125 -0.00125 0.001771875 0.0903737930073
110 1 -0.031303125 -0.00125 0.002953125 0.0799010189329
111 1 -0.031303125 -0.00125 0.004134375 0.0184315240444
112 1 -0.031303125 -0.00125 0.005315625 0.0395119615996
113 1 -0.031303125 -0.00125 0.006496875 0.158732815266
114 1 -0.031303125 -0.00125 0.007678125 0.144740542768
115 1 -0.031303125 -0.00125 0.008859375 0.0655178495212
116 1 -0.031303125 -0.00125 0.010040625 0.151401901419
117 1 -0.031303125 -0.00125 0.011221875 0.183849996981
118 1 -0.031303125 -0.00125 0.012403125 0.211866380757
119 1 -0.031303125 -0.00125 0.013584375 0.120961309283
120 1 -0.031303125 -0.00125 0.014765625 0.274489413099
121 1 -0.031303125 -0.00125 0.015946875 0.388253188398
122 1 -0.031303125 -0.00125 0.017128125 0.310683500764
123 1 -0.031303125 -0.00125 0.018309375 0.302892845126
124 1 -0.031303125 -0.00125 0.019490625 0.0476977927984
125 1 -0.030121875 -0.00125 -0.020671875 1.79863721621e-16
126 1 -0.030121875 -0.00125 -0.019490625 2.60673470248e-08
127 1 -0.030121875 -0.00125 -0.018309375 0.000258022604987
128 1 -0.030121875 -0.00125 -0.017128125 7.77657694087e-05
129 1 -0.030121875 -0.00125 -0.015946875 1.91248218225e-06
130 1 -0.030121875 -0.00125 -0.014765625 0.000180436144958
131 1 -0.030121875 -0.00125 -0.013584375 0.00138967106193
132 1 -0.030121875 -0.00125 -0.012403125 0.0143068908593
133 1 -0.030121875 -0.00125 -0.011221875 0.0195668259362
134 1 -0.030121875 -0.00125 -0.010040625 0.0358474296534
135 1 -0.030121875 -0.00125 -0.008859375 0.0849850696229
136 1 -0.030121875 -0.00125 -0.007678125 0.149605206289
137 1 -0.030121875 -0.00125 -0.006496875 0.0954997358963
138 1 -0.030121875 -0.00125 -0.005315625 0.102446682047
139 1 -0.030121875 -0.00125 -0.004134375 0.360948703349
140 1 -0.030121875 -0.00125 -0.002953125 0.169643030817
141 1 -0.030121875 -0.00125 -0.001771875 0.165334379259
142 1 -0.030121875 -0.00125 -0.000590625 0.217440939743
143 1 -0.030121875 -0.00125 0.000590625 0.157447132776
144 1 -0.030121875 -0.00125 0.001771875 0.119470589424
145 1 -0.030121875 -0.00125 0.002953125 0.133904017594
146 1 -0.030121875 -0.00125 0.004134375 0.0246110867315
147 1 -0.030121875 -0.00125 0.005315625 0.118308431257
148 1 -0.030121875 -0.00125 0.006496875 0.0445083982236
149 1 -0.030121875 -0.00125 0.007678125 0.198258554265
150 1 -0.030121875 -0.00125 0.008859375 0.107737994672
151 1 -0.030121875 -0.00125 0.010040625 0.123780166476
152 1 -0.030121875 -0.00125 0.011221875 0.228270025605
153 1 -0.030121875 -0.00125 0.012403125 0.271374587656
154 1 -0.030121875 -0.00125 0.013584375 0.295145724497
155 1 -0.030121875 -0.00125 0.014765625 0.40178553241
156 1 -0.030121875 -0.00125 0.015946875 0.558035618817
157 1 -0.030121875 -0.00125 0.017128125 0.437767810388
158 1 -0.030121875 -0.00125 0.018309375 0.298310772033
159 1 -0.030121875 -0.00125 0.019490625 0.150919000373
160 1 -0.030121875 -0.00125 0.020671875 0.104731116933
161 1 -0.028940625 -0.00125 -0.021853125 1.35202861499e-05
162 1 -0.028940625 -0.00125 -0.020671875 4.17078013295e-06
163 1 -0.028940625 -0.00125 -0.019490625 9.1503006849e-05
164 1 -0.028940625 -0.00125 -0.018309375 5.0945490195e-06
165 1 -0.028940625 -0.00125 -0.017128125 0.000108291684171
166 1 -0.028940625 -0.00125 -0.015946875 0.0023556444147
167 1 -0.028940625 -0.00125 -0.014765625 0.00752238085742
168 1 -0.028940625 -0.00125 -0.013584375 0.00662974251264
169 1 -0.028940625 -0.00125 -0.012403125 0.0031465611291
170 1 -0.028940625 -0.00125 -0.011221875 0.00884259097242
171 1 -0.028940625 -0.00125 -0.010040625 0.0483433630795
172 1 -0.028940625 -0.00125 -0.008859375 0.0228632454312
173 1 -0.028940625 -0.00125 -0.007678125 0.0704684167394
174 1 -0.028940625 -0.00125 -0.006496875 0.163937509945
175 1 -0.028940625 -0.00125 -0.005315625 0.186674755009
176 1 -0.028940625 -0.00125 -0.004134375 0.176816335073
177 1 -0.028940625 -0.00125 -0.002953125 0.0850491381262
178 1 -0.028940625 -0.00125 -0.001771875 0.0845554045626
179 1 -0.028940625 -0.00125 -0.000590625 0.168792313306
180 1 -0.028940625 -0.00125 0.000590625 0.162402867524
181 1 -0.028940625 -0.00125 0.001771875 0.117115212852
182 1 -0.028940625 -0.00125 0.002953125 0.0832009796411
183 1 -0.028940625 -0.00125 0.004134375 0.212323926059
184 1 -0.028940625 -0.00125 0.005315625 0.0519557899947
185 1 -0.028940625 -0.00125 0.006496875 0.233896506645
186 1 -0.028940625 -0.00125 0.007678125 0.147979309571
187 1 -0.028940625 -0.00125 0.008859375 0.178972488693
188 1 -0.028940625 -0.00125 0.010040625 0.244300062558
189 1 -0.028940625 -0.00125 0.011221875 0.235307314989
190 1 -0.028940625 -0.00125 0.012403125 0.234815843299
191 1 -0.028940625 -0.00125 0.013584375 0.222461064668
192 1 -0.028940625 -0.00125 0.014765625 0.26874314722
193 1 -0.028940625 -0.00125 0.015946875 0.503281430581
194 1 -0.028940625 -0.00125 0.017128125 0.468492944126
195 1 -0.028940625 -0.00125 0.018309375 0.249215153815
196 1 -0.028940625 -0.00125 0.019490625 0.0982999990801
197 1 -0.028940625 -0.00125 0.020671875 0.0855639453913
198 1 -0.028940625 -0.00125 0.021853125 0.387474138236
199 1 -0.027759375 -0.00125 -0.024215625 3.85157861471e-39
200 1 -0.027759375 -0.00125 -0.023034375 2.85809932667e-15
201 1 -0.027759375 -0.00125 -0.021853125 1.78838552482e-06
202 1 -0.027759375 -0.00125 -0.020671875 5.25783427167e-10
203 1 -0.027759375 -0.00125 -0.019490625 2.3757364245e-07
204 1 -0.027759375 -0.00125 -0.018309375 0.000202059130815
205 1 -0.027759375 -0.00125 -0.017128125 0.01053145675
206 1 -0.027759375 -0.00125 -0.015946875 0.000636438060107
207 1 -0.027759375 -0.00125 -0.014765625 0.0447425686431
208 1 -0.027759375 -0.00125 -0.013584375 0.000297970842416
209 1 -0.027759375 -0.00125 -0.012403125 0.0499902571813
210 1 -0.027759375 -0.00125 -0.011221875 0.20938753883
211 1 -0.027759375 -0.00125 -0.010040625 0.0194175392957
212 1 -0.027759375 -0.00125 -0.008859375 0.0853662470583
213 1 -0.027759375 -0.00125 -0.007678125 0.07986886534
214 1 -0.027759375 -0.00125 -0.006496875 0.202363357915
215 1 -0.027759375 -0.00125 -0.005315625 0.422922169725
216 1 -0.027759375 -0.00125 -0.004134375 0.271927894072
217 1 -0.027759375 -0.00125 -0.002953125 0.210067583524
218 1 -0.027759375 -0.00125 -0.001771875 0.185765647014
219 1 -0.027759375 -0.00125 -0.000590625 0.251296551816
220 1 -0.027759375 -0.00125 0.000590625 0.0995632775108
221 1 -0.027759375 -0.00125 0.001771875 0.319453664256
222 1 -0.027759375 -0.00125 0.002953125 0.34317778775
223 1 -0.027759375 -0.00125 0.004134375 0.304100566169
224 1 -0.027759375 -0.00125 0.005315625 0.261287573033
225 1 -0.027759375 -0.00125 0.006496875 0.367398701481
226 1 -0.027759375 -0.00125 0.007678125 0.193403589615
227 1 -0.027759375 -0.00125 0.008859375 0.255778252436
228 1 -0.027759375 -0.00125 0.010040625 0.297158677185
229 1 -0.027759375 -0.00125 0.011221875 0.468596213898
230 1 -0.027759375 -0.00125 0.012403125 0.310186858152
231 1 -0.027759375 -0.00125 0.013584375 0.263037276748
232 1 -0.027759375 -0.00125 0.014765625 0.400661937365
233 1 -0.027759375 -0.00125 0.015946875 0.626873607579
234 1 -0.027759375 -0.00125 0.017128125 0.35795011016
235 1 -0.027759375 -0.00125 0.018309375 0.719888643824
236 1 -0.027759375 -0.00125 0.019490625 0.562247121876
237 1 -0.027759375 -0.00125 0.020671875 0.395823277577
238 1 -0.027759375 -0.00125 0.021853125 0.480800291405
239 1 -0.027759375 -0.00125 0.023034375 0.126606807087
240 1 -0.027759375 -0.00125 0.024215625 0.0334465678819
241 1 -0.026578125 -0.00125 -0.026578125 2.69685674169e-25
242 1 -0.026578125 -0.00125 -0.025396875 7.38974264598e-33
243 1 -0.026578125 -0.00125 -0.024215625 5.49831463905e-33
244 1 -0.026578125 -0.00125 -0.023034375 1.81622126931e-20
245 1 -0.026578125 -0.00125 -0.021853125 2.60993019628e-20
246 1 -0.026578125 -0.00125 -0.020671875 1.05932133107e-15
247 1 -0.026578125 -0.00125 -0.019490625 8.25699104824e-06
248 1 -0.026578125 -0.00125 -0.018309375 0.00126775113193
249 1 -0.026578125 -0.00125 -0.017128125 0.016155549151
250 1 -0.026578125 -0.00125 -0.015946875 0.0118200422141
251 1 -0.026578125 -0.00125 -0.014765625 0.0293048664057
252 1 -0.026578125 -0.00125 -0.013584375 0.0877987575917
253 1 -0.026578125 -0.00125 -0.012403125 0.250675683802
254 1 -0.026578125 -0.00125 -0.011221875 0.111366037609
255 1 -0.026578125 -0.00125 -0.010040625 0.0509913918041
256 1 -0.026578125 -0.00125 -0.008859375 0.0163114213989
257 1 -0.026578125 -0.00125 -0.007678125 0.171199708188
258 1 -0.026578125 -0.00125 -0.006496875 0.378316329689
259 1 -0.026578125 -0.00125 -0.005315625 0.407544969738
260 1 -0.026578125 -0.00125 -0.004134375 0.435189414855
261 1 -0.026578125 -0.00125 -0.002953125 0.251228234425
262 1 -0.026578125 -0.00125 -0.001771875 0.310146805086
263 1 -0.026578125 -0.00125 -0.000590625 0.332730210944
264 1 -0.026578125 -0.00125 0.000590625 0.276618908227
265 1 -0.026578125 -0.00125 0.001771875 0.384092775159
266 1 -0.026578125 -0.00125 0.002953125 0.329736395903
267 1 -0.026578125 -0.00125 0.004134375 0.431056988037
268 1 -0.026578125 -0.00125 0.005315625 0.374688487278
269 1 -0.026578125 -0.00125 0.006496875 0.460320055606
270 1 -0.026578125 -0.00125 0.007678125 0.43758838925
271 1 -0.026578125 -0.00125 0.008859375 0.389838895457
272 1 -0.026578125 -0.00125 0.010040625 0.534418080568
273 1 -0.026578125 -0.00125 0.011221875 0.53264470816
274 1 -0.026578125 -0.00125 0.012403125 0.367206113518
275 1 -0.026578125 -0.00125 0.013584375 0.286990231061
276 1 -0.026578125 -0.00125 0.014765625 0.390118381725
277 1 -0.026578125 -0.00125 0.015946875 0.520666885452
278 1 -0.026578125 -0.00125 0.017128125 0.448109832424
279 1 -0.026578125 -0.00125 0.018309375 0.432338026529
280 1 -0.026578125 -0.00125 0.019490625 0.455854507959
281 1 -0.026578125 -0.00125 0.020671875 0.505402825639
282 1 -0.026578125 -0.00125 0.021853125 0.582070143356
283 1 -0.026578125 -0.00125 0.023034375 0.299703783193
284 1 -0.026578125 -0.00125 0.024215625 0.221686047325
285 1 -0.026578125 -0.00125 0.025396875 0.00411612169149
286 1 -0.026578125 -0.00125 0.026578125 0.0231040638727
287 1 -0.025396875 -0.00125 -0.026578125 3.66851355268e-21
288 1 -0.025396875 -0.00125 -0.025396875 1.86702589053e-61
289 1 -0.025396875 -0.00125 -0.024215625 3.79518301879e-23
290 1 -0.025396875 -0.00125 -0.023034375 1.13818860072e-32
291 1 -0.025396875 -0.00125 -0.021853125 1.73678923656e-15
292 1 -0.025396875 -0.00125 -0.020671875 5.29644662364e-07
293 1 -0.025396875 -0.00125 -0.019490625 9.46651207061e-07
294 1 -0.025396875 -0.00125 -0.018309375 0.00544455373063
295 1 -0.025396875 -0.00125 -0.017128125 0.0151215569376
296 1 -0.025396875 -0.00125 -0.015946875 0.00230885462082
297 1 -0.025396875 -0.00125 -0.014765625 0.0210059161839
298 1 -0.025396875 -0.00125 -0.013584375 0.0736000689792
299 1 -0.025396875 -0.00125 -0.012403125 0.124178156973
300 1 -0.025396875 -0.00125 -0.011221875 0.187755982434
301 1 -0.025396875 -0.00125 -0.010040625 0.152993806269
302 1 -0.025396875 -0.00125 -0.008859375 0.287865520843
303 1 -0.025396875 -0.00125 -0.007678125 0.179683319043
304 1 -0.025396875 -0.00125 -0.006496875 0.297925211661
305 1 -0.025396875 -0.00125 -0.005315625 0.341603479031
306 1 -0.025396875 -0.00125 -0.004134375 0.433009068948
307 1 -0.025396875 -0.00125 -0.002953125 0.369473174303
308 1 -0.025396875 -0.00125 -0.001771875 0.329261503263
309 1 -0.025396875 -0.00125 -0.000590625 0.34629182414
310 1 -0.025396875 -0.00125 0.000590625 0.396521712388
311 1 -0.025396875 -0.00125 0.001771875 0.334037442805
312 1 -0.025396875 -0.00125 0.002953125 0.51684719722
313 1 -0.025396875 -0.00125 0.004134375 0.510289299599
314 1 -0.025396875 -0.00125 0.005315625 0.476177709747
315 1 -0.025396875 -0.00125 0.006496875 0.520632711719
316 1 -0.025396875 -0.00125 0.007678125 0.575003341874
317 1 -0.025396875 -0.00125 0.008859375 0.658421337882
318 1 -0.025396875 -0.00125 0.010040625 0.386486134149
319 1 -0.025396875 -0.00125 0.011221875 0.523863673208
320 1 -0.025396875 -0.00125 0.012403125 0.26905631153
321 1 -0.025396875 -0.00125 0.013584375 0.384940488829
322 1 -0.025396875 -0.00125 0.014765625 0.570338342079
323 1 -0.025396875 -0.00125 0.015946875 0.487879267562
324 1 -0.025396875 -0.00125 0.017128125 0.428096621475
325 1 -0.025396875 -0.00125 0.018309375 0.672062307713
326 1 -0.025396875 -0.00125 0.019490625 0.500218431224
327 1 -0.025396875 -0.00125 0.020671875 0.581661093688
328 1 -0.025396875 -0.00125 0.021853125 0.379640758558
329 1 -0.025396875 -0.00125 0.023034375 0.368553288326
330 1 -0.025396875 -0.00125 0.024215625 0.16981573388
331 1 -0.025396875 -0.00125 0.025396875 0.0626984731697
332 1 -0.025396875 -0.00125 0.026578125 0.0145569897149
333 1 -0.024215625 -0.00125 -0.027759375 2.15462460242e-16
334 1 -0.024215625 -0.00125 -0.026578125 3.04784185471e-17
335 1 -0.024215625 -0.00125 -0.025396875 7.77223038202e-39
336 1 -0.024215625 -0.00125 -0.024215625 4.92696611609e-16
337 1 -0.024215625 -0.00125 -0.023034375 4.64335471452e-34
338 1 -0.024215625 -0.00125 -0.021853125 2.58009665939e-13
339 1 -0.024215625 -0.00125 -0.020671875 8.32874766037e-13
340 1 -0.024215625 -0.00125 -0.019490625 0.000113831416866
341 1 -0.024215625 -0.00125 -0.018309375 0.00145114194722
342 1 -0.024215625 -0.00125 -0.017128125 0.00977034048009
343 1 -0.024215625 -0.00125 -0.015946875 0.0760865974729
344 1 -0.024215625 -0.00125 -0.014765625 0.0711616992807
345 1 -0.024215625 -0.00125 -0.013584375 0.0379620662107
346 1 -0.024215625 -0.00125 -0.012403125 0.273831568194
347 1 -0.024215625 -0.00125 -0.011221875 0.361685065319
348 1 -0.024215625 -0.00125 -0.010040625 0.158831975344
349 1 -0.024215625 -0.00125 -0.008859375 0.174004881489
350 1 -0.024215625 -0.00125 -0.007678125 0.250239995905
351 1 -0.024215625 -0.00125 -0.006496875 0.343035164299
352 1 -0.024215625 -0.00125 -0.005315625 0.343294332557
353 1 -0.024215625 -0.00125 -0.004134375 0.406682547349
354 1 -0.024215625 -0.00125 -0.002953125 0.386259155827
355 1 -0.024215625 -0.00125 -0.001771875 0.409932537179
356 1 -0.024215625 -0.00125 -0.000590625 0.310693259301
357 1 -0.024215625 -0.00125 0.000590625 0.235306225517
358 1 -0.024215625 -0.00125 0.001771875 0.50647110693
359 1 -0.024215625 -0.00125 0.002953125 0.52025651976
360 1 -0.024215625 -0.00125 0.004134375 0.47578368224
361 1 -0.024215625 -0.00125 0.005315625 0.567143713292
362 1 -0.024215625 -0.00125 0.006496875 0.48713104943
363 1 -0.024215625 -0.00125 0.007678125 0.438786296456
364 1 -0.024215625 -0.00125 0.008859375 0.482323925493
365 1 -0.024215625 -0.00125 0.010040625 0.445812188949
366 1 -0.024215625 -0.00125 0.011221875 0.454492502166
367 1 -0.024215625 -0.00125 0.012403125 0.371970471717
368 1 -0.024215625 -0.00125 0.013584375 0.38913422614
369 1 -0.024215625 -0.00125 0.014765625 0.605356487669
370 1 -0.024215625 -0.00125 0.015946875 0.584891874368
371 1 -0.024215625 -0.00125 0.017128125 0.617298794255
372 1 -0.024215625 -0.00125 0.018309375 0.583350071902
373 1 -0.024215625 -0.00125 0.019490625 0.570814464161
374 1 -0.024215625 -0.00125 0.020671875 0.398636550411
375 1 -0.024215625 -0.00125 0.021853125 0.524275349321
376 1 -0.024215625 -0.00125 0.023034375 0.290768678371
377 1 -0.024215625 -0.00125 0.024215625 0.412999103466
378 1 -0.024215625 -0.00125 0.025396875 0.143140972881
379 1 -0.024215625 -0.00125 0.026578125 0.0545074168008
380 1 -0.024215625 -0.00125 0.027759375 0.00308691206173
381 1 -0.023034375 -0.00125 -0.027759375 1.23255052446e-59
382 1 -0.023034375 -0.00125 -0.026578125 1.63554637517e-18
383 1 -0.023034375 -0.00125 -0.025396875 2.94264993091e-25
384 1 -0.023034375 -0.00125 -0.024215625 3.76807559331e-37
385 1 -0.023034375 -0.00125 -0.023034375 9.88245031775e-19
386 1 -0.023034375 -0.00125 -0.021853125 1.11336994811e-10
387 1 -0.023034375 -0.00125 -0.020671875 3.33429756875e-07
388 1 -0.023034375 -0.00125 -0.019490625 0.000869982867809
389 1 -0.023034375 -0.00125 -0.018309375 0.00194241187857
390 1 -0.023034375 -0.00125 -0.017128125 0.00956174809309
391 1 -0.023034375 -0.00125 -0.015946875 0.0161466691949
392 1 -0.023034375 -0.00125 -0.014765625 0.073310413147
393 1 -0.023034375 -0.00125 -0.013584375 0.115784377733
394 1 -0.023034375 -0.00125 -0.012403125 0.312315433999
395 1 -0.023034375 -0.00125 -0.011221875 0.111865917786
396 1 -0.023034375 -0.00125 -0.010040625 0.0752637578795
397 1 -0.023034375 -0.00125 -0.008859375 0.234865765499
398 1 -0.023034375 -0.00125 -0.007678125 0.261483813737
399 1 -0.023034375 -0.00125 -0.006496875 0.173241687583
400 1 -0.023034375 -0.00125 -0.005315625 0.43779996859
401 1 -0.023034375 -0.00125 -0.004134375 0.557958006948
402 1 -0.023034375 -0.00125 -0.002953125 0.480260627191
403 1 -0.023034375 -0.00125 -0.001771875 0.552565283191
404 1 -0.023034375 -0.00125 -0.000590625 0.68707493414
405 1 -0.023034375 -0.00125 0.000590625 0.642644887681
406 1 -0.023034375 -0.00125 0.001771875 0.554717853941
407 1 -0.023034375 -0.00125 0.002953125 0.578657093955
408 1 -0.023034375 -0.00125 0.004134375 0.592741320375
409 1 -0.023034375 -0.00125 0.005315625 0.801410192351
410 1 -0.023034375 -0.00125 0.006496875 0.526821055026
411 1 -0.023034375 -0.00125 0.007678125 0.60716952628
412 1 -0.023034375 -0.00125 0.008859375 0.682213703217
413 1 -0.023034375 -0.00125 0.010040625 0.670745624819
414 1 -0.023034375 -0.00125 0.011221875 0.667785993496
415 1 -0.023034375 -0.00125 0.012403125 0.4648086153
416 1 -0.023034375 -0.00125 0.013584375 0.407672860173
417 1 -0.023034375 -0.00125 0.014765625 0.480524092678
418 1 -0.023034375 -0.00125 0.015946875 0.668383628028
419 1 -0.023034375 -0.00125 0.017128125 0.73610608121
420 1 -0.023034375 -0.00125 0.018309375 0.7207567249
421 1 -0.023034375 -0.00125 0.019490625 0.695936010038
422 1 -0.023034375 -0.00125 0.020671875 0.604063412966
423 1 -0.023034375 -0.00125 0.021853125 0.63162627185
424 1 -0.023034375 -0.00125 0.023034375 0.500396415689
425 1 -0.023034375 -0.00125 0.024215625 0.288787307957
426 1 -0.023034375 -0.00125 0.025396875 0.258747281718
427 1 -0.023034375 -0.00125 0.026578125 0.107606472573
428 1 -0.023034375 -0.00125 0.027759375 0.205293887642
429 1 -0.021853125 -0.00125 -0.028940625 3.53624662717e-45
430 1 -0.021853125 -0.00125 -0.027759375 3.56526658385e-29
431 1 -0.021853125 -0.00125 -0.026578125 5.00350903744e-30
432 1 -0.021853125 -0.00125 -0.025396875 1.89313981638e-16
433 1 -0.021853125 -0.00125 -0.024215625 5.72450676947e-15
434 1 -0.021853125 -0.00125 -0.023034375 1.59403376473e-12
435 1 -0.021853125 -0.00125 -0.021853125 5.12626076782e-17
436 1 -0.021853125 -0.00125 -0.020671875 1.82991048972e-08
437 1 -0.021853125 -0.00125 -0.019490625 0.000342928966409
438 1 -0.021853125 -0.00125 -0.018309375 0.00262055938787
439 1 -0.021853125 -0.00125 -0.017128125 0.0101688395601
440 1 -0.021853125 -0.00125 -0.015946875 0.0115647418267
441 1 -0.021853125 -0.00125 -0.014765625 0.00569860139864
442 1 -0.021853125 -0.00125 -0.013584375 0.106427164591
443 1 -0.021853125 -0.00125 -0.012403125 0.0862390161444
444 1 -0.021853125 -0.00125 -0.011221875 0.0523827351884
445 1 -0.021853125 -0.00125 -0.010040625 0.0638207488829
446 1 -0.021853125 -0.00125 -0.008859375 0.170919056638
447 1 -0.021853125 -0.00125 -0.007678125 0.210983043079
448 1 -0.021853125 -0.00125 -0.006496875 0.349855403663
449 1 -0.021853125 -0.00125 -0.005315625 0.387660573465
450 1 -0.021853125 -0.00125 -0.004134375 0.57245354254
451 1 -0.021853125 -0.00125 -0.002953125 0.585945901748
452 1 -0.021853125 -0.00125 -0.001771875 0.622584008074
453 1 -0.021853125 -0.00125 -0.000590625 0.630824641231
454 1 -0.021853125 -0.00125 0.000590625 0.825870159643
455 1 -0.021853125 -0.00125 0.001771875 0.784263009276
456 1 -0.021853125 -0.00125 0.002953125 0.854079147717
457 1 -0.021853125 -0.00125 0.004134375 0.78319905135
458 1 -0.021853125 -0.00125 0.005315625 0.903357579919
459 1 -0.021853125 -0.00125 0.006496875 0.743827021917
460 1 -0.021853125 -0.00125 0.007678125 0.773654810324
461 1 -0.021853125 -0.00125 0.008859375 0.708883244539
462 1 -0.021853125 -0.00125 0.010040625 0.7710922991
463 1 -0.021853125 -0.00125 0.011221875 0.79915828023
464 1 -0.021853125 -0.00125 0.012403125 0.652513942328
465 1 -0.021853125 -0.00125 0.013584375 0.517763802732
466 1 -0.021853125 -0.00125 0.014765625 0.695716641989
467 1 -0.021853125 -0.00125 0.015946875 0.744538089741
468 1 -0.021853125 -0.00125 0.017128125 0.874042986607
469 1 -0.021853125 -0.00125 0.018309375 0.729822302998
470 1 -0.021853125 -0.00125 0.019490625 0.805214086685
471 1 -0.021853125 -0.00125 0.020671875 0.75151214957
472 1 -0.021853125 -0.00125 0.021853125 0.610536852065
473 1 -0.021853125 -0.00125 0.023034375 0.499115086706
474 1 -0.021853125 -0.00125 0.024215625 0.445022250797
475 1 -0.021853125 -0.00125 0.025396875 0.357172540123
476 1 -0.021853125 -0.00125 0.026578125 0.402362219136
477 1 -0.021853125 -0.00125 0.027759375 0.237785509211
478 1 -0.021853125 -0.00125 0.028940625 0.33359266693
479 1 -0.020671875 -0.00125 -0.030121875 8.50331697252e-168
480 1 -0.020671875 -0.00125 -0.028940625 1.74336995428e-120
481 1 -0.020671875 -0.00125 -0.027759375 5.9922252339e-117
482 1 -0.020671875 -0.00125 -0.026578125 2.52047457227e-42
483 1 -0.020671875 -0.00125 -0.025396875 1.62116832467e-31
484 1 -0.020671875 -0.00125 -0.024215625 7.97929428237e-35
485 1 -0.020671875 -0.00125 -0.023034375 3.72208142989e-30
486 1 -0.020671875 -0.00125 -0.021853125 9.2427664474e-07
487 1 -0.020671875 -0.00125 -0.020671875 5.30694120831e-06
488 1 -0.020671875 -0.00125 -0.019490625 0.00397398203081
489 1 -0.020671875 -0.00125 -0.018309375 1.99360833169e-07
490 1 -0.020671875 -0.00125 -0.017128125 0.00457865621546
491 1 -0.020671875 -0.00125 -0.015946875 9.78803021842e-05
492 1 -0.020671875 -0.00125 -0.014765625 0.0398171295341
493 1 -0.020671875 -0.00125 -0.013584375 0.0614522227573
494 1 -0.020671875 -0.00125 -0.012403125 0.0769812619276
495 1 -0.020671875 -0.00125 -0.011221875 0.0462381045816
496 1 -0.020671875 -0.00125 -0.010040625 0.0650606226542
497 1 -0.020671875 -0.00125 -0.008859375 0.167088318641
498 1 -0.020671875 -0.00125 -0.007678125 0.328202186387
499 1 -0.020671875 -0.00125 -0.006496875 0.532569151824
500 1 -0.020671875 -0.00125 -0.005315625 0.449113801419
501 1 -0.020671875 -0.00125 -0.004134375 0.4992133948
502 1 -0.020671875 -0.00125 -0.002953125 0.58747463986
503 1 -0.020671875 -0.00125 -0.001771875 0.707297645067
504 1 -0.020671875 -0.00125 -0.000590625 0.66668886125
505 1 -0.020671875 -0.00125 0.000590625 0.744907152731
506 1 -0.020671875 -0.00125 0.001771875 0.886151033085
507 1 -0.020671875 -0.00125 0.002953125 0.964157791502
508 1 -0.020671875 -0.00125 0.004134375 0.899563183617
509 1 -0.020671875 -0.00125 0.005315625 0.889146276476
510 1 -0.020671875 -0.00125 0.006496875 0.872693884549
511 1 -0.020671875 -0.00125 0.007678125 0.876333165182
512 1 -0.020671875 -0.00125 0.008859375 0.687160746312
513 1 -0.020671875 -0.00125 0.010040625 0.707209375275
514 1 -0.020671875 -0.00125 0.011221875 0.844310138986
515 1 -0.020671875 -0.00125 0.012403125 0.682108940247
516 1 -0.020671875 -0.00125 0.013584375 0.639141832992
517 1 -0.020671875 -0.00125 0.014765625 0.466988370856
518 1 -0.020671875 -0.00125 0.015946875 0.75224931915
519 1 -0.020671875 -0.00125 0.017128125 0.735429796847
520 1 -0.020671875 -0.00125 0.018309375 0.691937956861
521 1 -0.020671875 -0.00125 0.019490625 0.536726709339
522 1 -0.020671875 -0.00125 0.020671875 0.620036458483
523 1 -0.020671875 -0.00125 0.021853125 0.435755429474
524 1 -0.020671875 -0.00125 0.023034375 0.426630973993
525 1 -0.020671875 -0.00125 0.024215625 0.504326305189
526 1 -0.020671875 -0.00125 0.025396875 0.357090759329
527 1 -0.020671875 -0.00125 0.026578125 0.295921719914
528 1 -0.020671875 -0.00125 0.027759375 0.307503102892
529 1 -0.020671875 -0.00125 0.028940625 0.086132581018
530 1 -0.020671875 -0.00125 0.030121875 0.032516564625