ITEM: TIMESTEP
0
ITEM: NUMBER OF ATOMS
3080
ITEM: BOX BOUNDS ss ss ss
-3.7007399999999996e-02 3.7007399999999996e-02
-2.0002499999999999e-03 2.5000000000000004e-07
-3.7007399999999996e-02 3.7007399999999996e-02
ITEM: ATOMS id type x y z c_1
0 1 -0.037209375 -0.00125 -0.000590625 7.17348335546e-121
1 1 -0.036028125 -0.00125 -0.007678125 0.0
2 1 -0.036028125 -0.00125 -0.006496875 0.0
3 1 -0.036028125 -0.00125 -0.005315625 0.0
4 1 -0.036028125 -0.00125 -0.004134375 0.0
5 1 -0.036028125 -0.00125 -0.002953125 0.0
6 1 -0.036028125 -0.00125 -0.001771875 0.0
7 1 -0.036028125 -0.00125 -0.000590625 0.0
8 1 -0.036028125 -0.00125 0.000590625 0.0
9 1 -0.036028125 -0.00125 0.001771875 0.0
10 1 -0.036028125 -0.00125 0.002953125 0.0
11 1 -0.036028125 -0.00125 0.004134375 0.0
12 1 -0.036028125 -0.00125 0.005315625 0.0
13 1 -0.036028125 -0.00125 0.006496875 0.0
14 1 -0.036028125 -0.00125 0.007678125 0.0
15 1 -0.034846875 -0.00125 -0.011221875 0.0
16 1 -0.034846875 -0.00125 -0.010040625 0.0
17 1 -0.034846875 -0.00125 -0.008859375 0.0
18 1 -0.034846875 -0.00125 -0.007678125 0.0
19 1 -0.034846875 -0.00125 -0.006496875 0.0
20 1 -0.034846875 -0.00125 -0.005315625 0.0
21 1 -0.034846875 -0.00125 -0.004134375 0.0
22 1 -0.034846875 -0.00125 -0.002953125 0.0
23 1 -0.034846875 -0.00125 -0.001771875 0.0
24 1 -0.034846875 -0.00125 -0.000590625 0.0
25 1 -0.034846875 -0.00125 0.000590625 0.0
26 1 -0.034846875 -0.00125 0.001771875 0.0
27 1 -0.034846875 -0.00125 0.002953125 0.0
28 1 -0.034846875 -0.00125 0.004134375 0.0
29 1 -0.034846875 -0.00125 0.005315625 0.0
30 1 -0.034846875 -0.00125 0.006496875 0.0
31 1 -0.034846875 -0.00125 0.007678125 0.0
32 1 -0.034846875 -0.00125 0.008859375 4.03677184558e-70
33 1 -0.034846875 -0.00125 0.010040625 0.0
34 1 -0.034846875 -0.00125 0.011221875 2.15511221451e-39
35 1 -0.033665625 -0.00125 -0.013584375 0.0
36 1 -0.033665625 -0.00125 -0.012403125 0.0
37 1 -0.033665625 -0.00125 -0.011221875 0.0
38 1 -0.033665625 -0.00125 -0.010040625 0.0
39 1 -0.033665625 -0.00125 -0.008859375 0.0
40 1 -0.033665625 -0.00125 -0.007678125 0.0
41 1 -0.033665625 -0.00125 -0.006496875 0.0
42 1 -0.033665625 -0.00125 -0.005315625 0.0
43 1 -0.033665625 -0.00125 -0.004134375 0.0
44 1 -0.033665625 -0.00125 -0.002953125 0.0
45 1 -0.033665625 -0.00125 -0.001771875 0.0
46 1 -0.033665625 -0.00125 -0.000590625 0.0
47 1 -0.033665625 -0.00125 0.000590625 0.0
48 1 -0.033665625 -0.00125 0.001771875 0.0
49 1 -0.033665625 -0.00125 0.002953125 0.0
50 1 -0.033665625 -0.00125 0.004134375 0.0
51 1 -0.033665625 -0.00125 0.005315625 0.0
52 1 -0.033665625 -0.00125 0.006496875 0.0
53 1 -0.033665625 -0.00125 0.007678125 1.10118568204e-257
54 1 -0.033665625 -0.00125 0.008859375 7.85654465868e-126
55 1 -0.033665625 -0.00125 0.010040625 8.876731521e-96
56 1 -0.033665625 -0.00125 0.011221875 7.30743192605e-24
57 1 -0.033665625 -0.00125 0.012403125 1.68325656366e-13
58 1 -0.033665625 -0.00125 0.013584375 2.84942405415e-226
59 1 -0.032484375 -0.00125 -0.018309375 0.0
60 1 -0.032484375 -0.00125 -0.017128125 0.0
61 1 -0.032484375 -0.00125 -0.015946875 0.0
62 1 -0.032484375 -0.00125 -0.014765625 7.6323780537e-293
63 1 -0.032484375 -0.00125 -0.013584375 0.0
64 1 -0.032484375 -0.00125 -0.012403125 0.0
65 1 -0.032484375 -0.00125 -0.011221875 0.0
66 1 -0.032484375 -0.00125 -0.010040625 0.0
67 1 -0.032484375 -0.00125 -0.008859375 0.0
68 1 -0.032484375 -0.00125 -0.007678125 0.0
69 1 -0.032484375 -0.00125 -0.006496875 0.0
70 1 -0.032484375 -0.00125 -0.005315625 0.0
71 1 -0.032484375 -0.00125 -0.004134375 0.0
72 1 -0.032484375 -0.00125 -0.002953125 0.0
73 1 -0.032484375 -0.00125 -0.001771875 0.0
74 1 -0.032484375 -0.00125 -0.000590625 0.0
75 1 -0.032484375 -0.00125 0.000590625 0.0
76 1 -0.032484375 -0.00125 0.001771875 3.96333376919e-282
77 1 -0.032484375 -0.00125 0.002953125 0.0
78 1 -0.032484375 -0.00125 0.004134375 0.0
79 1 -0.032484375 -0.00125 0.005315625 0.0
80 1 -0.032484375 -0.00125 0.006496875 2.11687584104e-250
81 1 -0.032484375 -0.00125 0.007678125 2.03583695872e-209
82 1 -0.032484375 -0.00125 0.008859375 0.0
83 1 -0.032484375 -0.00125 0.010040625 5.95872298313e-147
84 1 -0.032484375 -0.00125 0.011221875 1.24837488402e-48
85 1 -0.032484375 -0.00125 0.012403125 1.86964513993e-61
86 1 -0.032484375 -0.00125 0.013584375 0.0
87 1 -0.032484375 -0.00125 0.014765625 2.55967274197e-148
88 1 -0.032484375 -0.00125 0.015946875 2.94957489315e-227
89 1 -0.032484375 -0.00125 0.017128125 2.06696784543e-71
90 1 -0.032484375 -0.00125 0.018309375 2.50563330675e-52
91 1 -0.031303125 -0.00125 -0.019490625 0.0
92 1 -0.031303125 -0.00125 -0.018309375 0.0
93 1 -0.031303125 -0.00125 -0.017128125 0.0
94 1 -0.031303125 -0.00125 -0.015946875 0.0
95 1 -0.031303125 -0.00125 -0.014765625 0.0
96 1 -0.031303125 -0.00125 -0.013584375 0.0
97 1 -0.031303125 -0.00125 -0.012403125 0.0
98 1 -0.031303125 -0.00125 -0.011221875 0.0
99 1 -0.031303125 -0.00125 -0.010040625 0.0
100 1 -0.031303125 -0.00125 -0.008859375 0.0
101 1 -0.031303125 -0.00125 -0.007678125 0.0
102 1 -0.031303125 -0.00125 -0.006496875 0.0
103 1 -0.031303125 -0.00125 -0.005315625 0.0
104 1 -0.031303125 -0.00125 -0.004134375 0.0
105 1 -0.031303125 -0.00125 -0.002953125 0.0
106 1 -0.031303125 -0.00125 -0.001771875 0.0
107 1 -0.031303125 -0.00125 -0.000590625 0.0
108 1 -0.031303125 -0.00125 0.000590625 0.0
109 1 -0.031303125 -0.00125 0.001771875 1.41713749071e-189
110 1 -0.031303125 -0.00125 0.002953125 9.26980700762e-250
111 1 -0.031303125 -0.00125 0.004134375 0.0
112 1 -0.031303125 -0.00125 0.005315625 4.39420090973e-117
113 1 -0.031303125 -0.00125 0.006496875 1.62062620172e-88
114 1 -0.031303125 -0.00125 0.007678125 1.75110778164e-169
115 1 -0.031303125 -0.00125 0.008859375 0.0
116 1 -0.031303125 -0.00125 0.010040625 0.0
117 1 -0.031303125 -0.00125 0.011221875 5.34035956052e-126
118 1 -0.031303125 -0.00125 0.012403125 8.62090462201e-117
119 1 -0.031303125 -0.00125 0.013584375 2.03673110978e-235
120 1 -0.031303125 -0.00125 0.014765625 0.0
121 1 -0.031303125 -0.00125 0.015946875 0.0
122 1 -0.031303125 -0.00125 0.017128125 2.78605731892e-164
123 1 -0.031303125 -0.00125 0.018309375 6.33448509472e-83
124 1 -0.031303125 -0.00125 0.019490625 4.80562756284e-191
125 1 -0.030121875 -0.00125 -0.020671875 0.0
126 1 -0.030121875 -0.00125 -0.019490625 0.0
127 1 -0.030121875 -0.00125 -0.018309375 0.0
128 1 -0.030121875 -0.00125 -0.017128125 0.0
129 1 -0.030121875 -0.00125 -0.015946875 0.0
130 1 -0.030121875 -0.00125 -0.014765625 0.0
131 1 -0.030121875 -0.00125 -0.013584375 9.50752428143e-266
132 1 -0.030121875 -0.00125 -0.012403125 4.36858401684e-211
133 1 -0.030121875 -0.00125 -0.011221875 0.0
134 1 -0.030121875 -0.00125 -0.010040625 0.0
135 1 -0.030121875 -0.00125 -0.008859375 0.0
136 1 -0.030121875 -0.00125 -0.007678125 0.0
137 1 -0.030121875 -0.00125 -0.006496875 0.0
138 1 -0.030121875 -0.00125 -0.005315625 0.0
139 1 -0.030121875 -0.00125 -0.004134375 1.12210049732e-252
140 1 -0.030121875 -0.00125 -0.002953125 6.25496499026e-157
141 1 -0.030121875 -0.00125 -0.001771875 1.17554025978e-103
142 1 -0.030121875 -0.00125 -0.000590625 1.36228357188e-222
143 1 -0.030121875 -0.00125 0.000590625 5.06846592112e-201
144 1 -0.030121875 -0.00125 0.001771875 4.32367645377e-98
145 1 -0.030121875 -0.00125 0.002953125 1.79995933081e-143
146 1 -0.030121875 -0.00125 0.004134375 9.63313398796e-184
147 1 -0.030121875 -0.00125 0.005315625 7.24312635466e-70
148 1 -0.030121875 -0.00125 0.006496875 1.41253839945e-81
149 1 -0.030121875 -0.00125 0.007678125 1.58290215751e-104
150 1 -0.030121875 -0.00125 0.008859375 0.0
151 1 -0.030121875 -0.00125 0.010040625 1.08175399744e-172
152 1 -0.030121875 -0.00125 0.011221875 1.79673811674e-194
153 1 -0.030121875 -0.00125 0.012403125 1.82145512474e-246
154 1 -0.030121875 -0.00125 0.013584375 1.35438433542e-252
155 1 -0.030121875 -0.00125 0.014765625 0.0
156 1 -0.030121875 -0.00125 0.015946875 0.0
157 1 -0.030121875 -0.00125 0.017128125 9.50304124559e-271
158 1 -0.030121875 -0.00125 0.018309375 1.53549089763e-202
159 1 -0.030121875 -0.00125 0.019490625 3.04662510472e-250
160 1 -0.030121875 -0.00125 0.020671875 0.0
161 1 -0.028940625 -0.00125 -0.021853125 0.0
162 1 -0.028940625 -0.00125 -0.020671875 0.0
163 1 -0.028940625 -0.00125 -0.019490625 0.0
164 1 -0.028940625 -0.00125 -0.018309375 0.0
165 1 -0.028940625 -0.00125 -0.017128125 0.0
166 1 -0.028940625 -0.00125 -0.015946875 0.0
167 1 -0.028940625 -0.00125 -0.014765625 0.0
168 1 -0.028940625 -0.00125 -0.013584375 4.76607660858e-287
169 1 -0.028940625 -0.00125 -0.012403125 0.0
170 1 -0.028940625 -0.00125 -0.011221875 0.0
171 1 -0.028940625 -0.00125 -0.010040625 2.9549233354e-306
172 1 -0.028940625 -0.00125 -0.008859375 4.44246458436e-257
173 1 -0.028940625 -0.00125 -0.007678125 2.69663099917e-106
174 1 -0.028940625 -0.00125 -0.006496875 6.69476350095e-83
175 1 -0.028940625 -0.00125 -0.005315625 3.10467098864e-101
176 1 -0.028940625 -0.00125 -0.004134375 8.76822394468e-106
177 1 -0.028940625 -0.00125 -0.002953125 3.09449462169e-169
178 1 -0.028940625 -0.00125 -0.001771875 7.14933510748e-219
179 1 -0.028940625 -0.00125 -0.000590625 1.11304265991e-58
180 1 -0.028940625 -0.00125 0.000590625 3.94149289767e-95
181 1 -0.028940625 -0.00125 0.001771875 1.39599593222e-57
182 1 -0.028940625 -0.00125 0.002953125 1.40279724807e-75
183 1 -0.028940625 -0.00125 0.004134375 2.44255704067e-112
184 1 -0.028940625 -0.00125 0.005315625 7.93619042026e-72
185 1 -0.028940625 -0.00125 0.006496875 7.2671513752e-85
186 1 -0.028940625 -0.00125 0.007678125 2.31823763661e-135
187 1 -0.028940625 -0.00125 0.008859375 1.24492701424e-117
188 1 -0.028940625 -0.00125 0.010040625 1.25261694798e-200
189 1 -0.028940625 -0.00125 0.011221875 7.49311434544e-197
190 1 -0.028940625 -0.00125 0.012403125 0.0
191 1 -0.028940625 -0.00125 0.013584375 0.0
192 1 -0.028940625 -0.00125 0.014765625 0.0
193 1 -0.028940625 -0.00125 0.015946875 0.0
194 1 -0.028940625 -0.00125 0.017128125 3.16810705544e-247
195 1 -0.028940625 -0.00125 0.018309375 3.45486022008e-256
196 1 -0.028940625 -0.00125 0.019490625 3.63013808259e-239
197 1 -0.028940625 -0.00125 0.020671875 5.6219731304e-127
198 1 -0.028940625 -0.00125 0.021853125 3.24177171803e-69
199 1 -0.027759375 -0.00125 -0.024215625 0.0
200 1 -0.027759375 -0.00125 -0.023034375 0.0
201 1 -0.027759375 -0.00125 -0.021853125 0.0
202 1 -0.027759375 -0.00125 -0.020671875 0.0
203 1 -0.027759375 -0.00125 -0.019490625 0.0
204 1 -0.027759375 -0.00125 -0.018309375 0.0
205 1 -0.027759375 -0.00125 -0.017128125 0.0
206 1 -0.027759375 -0.00125 -0.015946875 0.0
207 1 -0.027759375 -0.00125 -0.014765625 6.69505165966e-123
208 1 -0.027759375 -0.00125 -0.013584375 6.49403034714e-179
209 1 -0.027759375 -0.00125 -0.012403125 2.3924731109e-58
210 1 -0.027759375 -0.00125 -0.011221875 2.96468899464e-141
211 1 -0.027759375 -0.00125 -0.010040625 3.06214044405e-164
212 1 -0.027759375 -0.00125 -0.008859375 2.38656808248e-131
213 1 -0.027759375 -0.00125 -0.007678125 4.25070882934e-75
214 1 -0.027759375 -0.00125 -0.006496875 2.95966985259e-40
215 1 -0.027759375 -0.00125 -0.005315625 1.16756007487e-46
216 1 -0.027759375 -0.00125 -0.004134375 1.93921285929e-54
217 1 -0.027759375 -0.00125 -0.002953125 1.98408376304e-46
218 1 -0.027759375 -0.00125 -0.001771875 8.97621342866e-156
219 1 -0.027759375 -0.00125 -0.000590625 6.53048512493e-29
220 1 -0.027759375 -0.00125 0.000590625 1.08977930373e-25
221 1 -0.027759375 -0.00125 0.001771875 4.34647657894e-22
222 1 -0.027759375 -0.00125 0.002953125 3.04718248642e-20
223 1 -0.027759375 -0.00125 0.004134375 1.15551403164e-36
224 1 -0.027759375 -0.00125 0.005315625 1.67792338479e-23
225 1 -0.027759375 -0.00125 0.006496875 5.64484629173e-46
226 1 -0.027759375 -0.00125 0.007678125 9.40975042143e-52
227 1 -0.027759375 -0.00125 0.008859375 3.70255342711e-23
228 1 -0.027759375 -0.00125 0.010040625 2.99067337536e-33
229 1 -0.027759375 -0.00125 0.011221875 3.38000252683e-152
230 1 -0.027759375 -0.00125 0.012403125 4.7964673027e-267
231 1 -0.027759375 -0.00125 0.013584375 0.0
232 1 -0.027759375 -0.00125 0.014765625 0.0
233 1 -0.027759375 -0.00125 0.015946875 0.0
234 1 -0.027759375 -0.00125 0.017128125 0.0
235 1 -0.027759375 -0.00125 0.018309375 0.0
236 1 -0.027759375 -0.00125 0.019490625 2.45743362718e-206
237 1 -0.027759375 -0.00125 0.020671875 6.16363553767e-111
238 1 -0.027759375 -0.00125 0.021853125 1.68450292283e-10
239 1 -0.027759375 -0.00125 0.023034375 2.04829742605e-20
240 1 -0.027759375 -0.00125 0.024215625 9.01713119033e-93
241 1 -0.026578125 -0.00125 -0.026578125 0.0
242 1 -0.026578125 -0.00125 -0.025396875 0.0
243 1 -0.026578125 -0.00125 -0.024215625 0.0
244 1 -0.026578125 -0.00125 -0.023034375 0.0
245 1 -0.026578125 -0.00125 -0.021853125 0.0
246 1 -0.026578125 -0.00125 -0.020671875 0.0
247 1 -0.026578125 -0.00125 -0.019490625 0.0
248 1 -0.026578125 -0.00125 -0.018309375 0.0
249 1 -0.026578125 -0.00125 -0.017128125 0.0
250 1 -0.026578125 -0.00125 -0.015946875 4.03759098736e-130
251 1 -0.026578125 -0.00125 -0.014765625 3.89321057728e-62
252 1 -0.026578125 -0.00125 -0.013584375 2.61837580593e-47
253 1 -0.026578125 -0.00125 -0.012403125 5.09929669844e-49
254 1 -0.026578125 -0.00125 -0.011221875 6.40210936507e-34
255 1 -0.026578125 -0.00125 -0.010040625 8.78249799968e-106
256 1 -0.026578125 -0.00125 -0.008859375 3.93543088937e-70
257 1 -0.026578125 -0.00125 -0.007678125 3.02636620855e-24
258 1 -0.026578125 -0.00125 -0.006496875 8.04765991084e-29
259 1 -0.026578125 -0.00125 -0.005315625 2.35136805335e-26
260 1 -0.026578125 -0.00125 -0.004134375 1.02551616558e-27
261 1 -0.026578125 -0.00125 -0.002953125 6.42079392787e-39
262 1 -0.026578125 -0.00125 -0.001771875 3.18655970502e-31
263 1 -0.026578125 -0.00125 -0.000590625 3.13753009483e-16
264 1 -0.026578125 -0.00125 0.000590625 1.9434985369e-22
265 1 -0.026578125 -0.00125 0.001771875 5.08370724867e-12
266 1 -0.026578125 -0.00125 0.002953125 7.84848000611e-14
267 1 -0.026578125 -0.00125 0.004134375 3.85169902533e-13
268 1 -0.026578125 -0.00125 0.005315625 4.69137499489e-08
269 1 -0.026578125 -0.00125 0.006496875 1.51006642837e-07
270 1 -0.026578125 -0.00125 0.007678125 1.38404220229e-05
271 1 -0.026578125 -0.00125 0.008859375 1.17405670529e-14
272 1 -0.026578125 -0.00125 0.010040625 1.75817121736e-13
273 1 -0.026578125 -0.00125 0.011221875 2.93483952468e-37
274 1 -0.026578125 -0.00125 0.012403125 5.08601458639e-76
275 1 -0.026578125 -0.00125 0.013584375 7.56869434645e-227
276 1 -0.026578125 -0.00125 0.014765625 0.0
277 1 -0.026578125 -0.00125 0.015946875 0.0
278 1 -0.026578125 -0.00125 0.017128125 0.0
279 1 -0.026578125 -0.00125 0.018309375 2.29611896083e-209
280 1 -0.026578125 -0.00125 0.019490625 5.9884422154e-115
281 1 -0.026578125 -0.00125 0.020671875 6.01281344699e-77
282 1 -0.026578125 -0.00125 0.021853125 5.8940659423e-45
283 1 -0.026578125 -0.00125 0.023034375 1.33009772218e-38
284 1 -0.026578125 -0.00125 0.024215625 6.04844571436e-69
285 1 -0.026578125 -0.00125 0.025396875 9.84277275866e-139
286 1 -0.026578125 -0.00125 0.026578125 8.12116287826e-87
287 1 -0.025396875 -0.00125 -0.026578125 0.0
288 1 -0.025396875 -0.00125 -0.025396875 0.0
289 1 -0.025396875 -0.00125 -0.024215625 0.0
290 1 -0.025396875 -0.00125 -0.023034375 0.0
291 1 -0.025396875 -0.00125 -0.021853125 0.0
292 1 -0.025396875 -0.00125 -0.020671875 0.0
293 1 -0.025396875 -0.00125 -0.019490625 0.0
294 1 -0.025396875 -0.00125 -0.018309375 0.0
295 1 -0.025396875 -0.00125 -0.017128125 1.27953398534e-108
296 1 -0.025396875 -0.00125 -0.015946875 3.94302397705e-137
297 1 -0.025396875 -0.00125 -0.014765625 1.24987828407e-18
298 1 -0.025396875 -0.00125 -0.013584375 5.69870381339e-37
299 1 -0.025396875 -0.00125 -0.012403125 3.09895929579e-32
300 1 -0.025396875 -0.00125 -0.011221875 9.02238552813e-47
301 1 -0.025396875 -0.00125 -0.010040625 1.07129430422e-34
302 1 -0.025396875 -0.00125 -0.008859375 2.73608959634e-35
303 1 -0.025396875 -0.00125 -0.007678125 1.4354630438e-13
304 1 -0.025396875 -0.00125 -0.006496875 5.06521170688e-34
305 1 -0.025396875 -0.00125 -0.005315625 6.1704125746e-33
306 1 -0.025396875 -0.00125 -0.004134375 1.16115126979e-58
307 1 -0.025396875 -0.00125 -0.002953125 4.87951507412e-26
308 1 -0.025396875 -0.00125 -0.001771875 4.29178302295e-27
309 1 -0.025396875 -0.00125 -0.000590625 3.07860594691e-32
310 1 -0.025396875 -0.00125 0.000590625 2.31057827704e-26
311 1 -0.025396875 -0.00125 0.001771875 1.28649133214e-27
312 1 -0.025396875 -0.00125 0.002953125 4.08925853028e-29
313 1 -0.025396875 -0.00125 0.004134375 4.92537399021e-10
314 1 -0.025396875 -0.00125 0.005315625 1.96785876271e-10
315 1 -0.025396875 -0.00125 0.006496875 9.84982126361e-07
316 1 -0.025396875 -0.00125 0.007678125 0.000239241342484
317 1 -0.025396875 -0.00125 0.008859375 4.31717177708e-06
318 1 -0.025396875 -0.00125 0.010040625 2.35821478537e-05
319 1 -0.025396875 -0.00125 0.011221875 6.65981310395e-10
320 1 -0.025396875 -0.00125 0.012403125 2.55715514221e-13
321 1 -0.025396875 -0.00125 0.013584375 2.98210219595e-29
322 1 -0.025396875 -0.00125 0.014765625 0.0
323 1 -0.025396875 -0.00125 0.015946875 0.0
324 1 -0.025396875 -0.00125 0.017128125 0.0
325 1 -0.025396875 -0.00125 0.018309375 4.14938325533e-178
326 1 -0.025396875 -0.00125 0.019490625 3.36866545949e-229
327 1 -0.025396875 -0.00125 0.020671875 4.20582869218e-95
328 1 -0.025396875 -0.00125 0.021853125 1.35039314395e-69
329 1 -0.025396875 -0.00125 0.023034375 8.97506950896e-54
330 1 -0.025396875 -0.00125 0.024215625 8.1262241701e-69
331 1 -0.025396875 -0.00125 0.025396875 6.38810765905e-211
332 1 -0.025396875 -0.00125 0.026578125 4.12084379109e-187
333 1 -0.024215625 -0.00125 -0.027759375 0.0
334 1 -0.024215625 -0.00125 -0.026578125 0.0
335 1 -0.024215625 -0.00125 -0.025396875 0.0
336 1 -0.024215625 -0.00125 -0.024215625 0.0
337 1 -0.024215625 -0.00125 -0.023034375 0.0
338 1 -0.024215625 -0.00125 -0.021853125 0.0
339 1 -0.024215625 -0.00125 -0.020671875 0.0
340 1 -0.024215625 -0.00125 -0.019490625 2.29414544875e-177
341 1 -0.024215625 -0.00125 -0.018309375 1.64504432558e-126
342 1 -0.024215625 -0.00125 -0.017128125 1.72792327449e-98
343 1 -0.024215625 -0.00125 -0.015946875 2.59286733873e-46
344 1 -0.024215625 -0.00125 -0.014765625 1.03390195033e-23
345 1 -0.024215625 -0.00125 -0.013584375 1.40805196455e-27
346 1 -0.024215625 -0.00125 -0.012403125 1.47176155444e-22
347 1 -0.024215625 -0.00125 -0.011221875 1.32515808748e-27
348 1 -0.024215625 -0.00125 -0.010040625 2.66702535949e-22
349 1 -0.024215625 -0.00125 -0.008859375 1.34545276545e-15
350 1 -0.024215625 -0.00125 -0.007678125 6.88241652174e-11
351 1 -0.024215625 -0.00125 -0.006496875 7.6230905713e-11
352 1 -0.024215625 -0.00125 -0.005315625 1.26503158792e-11
353 1 -0.024215625 -0.00125 -0.004134375 3.20324900689e-11
354 1 -0.024215625 -0.00125 -0.002953125 4.77191237845e-16
355 1 -0.024215625 -0.00125 -0.001771875 1.30788341406e-16
356 1 -0.024215625 -0.00125 -0.000590625 1.63669323789e-18
357 1 -0.024215625 -0.00125 0.000590625 6.82708605349e-12
358 1 -0.024215625 -0.00125 0.001771875 3.73496285248e-17
359 1 -0.024215625 -0.00125 0.002953125 1.02270962204e-14
360 1 -0.024215625 -0.00125 0.004134375 3.44486887725e-12
361 1 -0.024215625 -0.00125 0.005315625 1.11848931385e-08
362 1 -0.024215625 -0.00125 0.006496875 9.33714395672e-12
363 1 -0.024215625 -0.00125 0.007678125 1.86841093079e-06
364 1 -0.024215625 -0.00125 0.008859375 5.13280220744e-05
365 1 -0.024215625 -0.00125 0.010040625 0.000820199114253
366 1 -0.024215625 -0.00125 0.011221875 0.000184879439018
367 1 -0.024215625 -0.00125 0.012403125 8.73205511029e-05
368 1 -0.024215625 -0.00125 0.013584375 3.94667001798e-10
369 1 -0.024215625 -0.00125 0.014765625 6.15675542995e-42
370 1 -0.024215625 -0.00125 0.015946875 1.17947420452e-209
371 1 -0.024215625 -0.00125 0.017128125 7.585430868e-192
372 1 -0.024215625 -0.00125 0.018309375 3.85756607776e-103
373 1 -0.024215625 -0.00125 0.019490625 2.6882106141e-117
374 1 -0.024215625 -0.00125 0.020671875 1.19913653463e-108
375 1 -0.024215625 -0.00125 0.021853125 2.28239601916e-111
376 1 -0.024215625 -0.00125 0.023034375 2.0740379679e-113
377 1 -0.024215625 -0.00125 0.024215625 9.28608745209e-166
378 1 -0.024215625 -0.00125 0.025396875 2.18863764906e-65
379 1 -0.024215625 -0.00125 0.026578125 8.56897842607e-37
380 1 -0.024215625 -0.00125 0.027759375 1.02735704685e-56
381 1 -0.023034375 -0.00125 -0.027759375 0.0
382 1 -0.023034375 -0.00125 -0.026578125 0.0
383 1 -0.023034375 -0.00125 -0.025396875 0.0
384 1 -0.023034375 -0.00125 -0.024215625 0.0
385 1 -0.023034375 -0.00125 -0.023034375 0.0
386 1 -0.023034375 -0.00125 -0.021853125 0.0
387 1 -0.023034375 -0.00125 -0.020671875 0.0
388 1 -0.023034375 -0.00125 -0.019490625 1.28768048255e-74
389 1 -0.023034375 -0.00125 -0.018309375 6.74289270537e-107
390 1 -0.023034375 -0.00125 -0.017128125 3.7511686659e-58
391 1 -0.023034375 -0.00125 -0.015946875 1.12983191494e-47
392 1 -0.023034375 -0.00125 -0.014765625 1.70950444713e-36
393 1 -0.023034375 -0.00125 -0.013584375 3.70305976983e-30
394 1 -0.023034375 -0.00125 -0.012403125 1.84924450126e-16
395 1 -0.023034375 -0.00125 -0.011221875 6.97882899413e-23
396 1 -0.023034375 -0.00125 -0.010040625 4.62112014457e-26
397 1 -0.023034375 -0.00125 -0.008859375 3.27947092994e-19
398 1 -0.023034375 -0.00125 -0.007678125 5.56971944905e-07
399 1 -0.023034375 -0.00125 -0.006496875 1.63097013758e-21
400 1 -0.023034375 -0.00125 -0.005315625 1.25138753787e-16
401 1 -0.023034375 -0.00125 -0.004134375 1.08398033778e-28
402 1 -0.023034375 -0.00125 -0.002953125 9.50082000872e-14
403 1 -0.023034375 -0.00125 -0.001771875 4.5375866593e-21
404 1 -0.023034375 -0.00125 -0.000590625 2.03189797399e-14
405 1 -0.023034375 -0.00125 0.000590625 2.2057046274e-16
406 1 -0.023034375 -0.00125 0.001771875 6.77759352812e-10
407 1 -0.023034375 -0.00125 0.002953125 6.30180623916e-14
408 1 -0.023034375 -0.00125 0.004134375 1.3163286728e-10
409 1 -0.023034375 -0.00125 0.005315625 2.16646759308e-18
410 1 -0.023034375 -0.00125 0.006496875 3.01101892155e-07
411 1 -0.023034375 -0.00125 0.007678125 3.79418066393e-05
412 1 -0.023034375 -0.00125 0.008859375 0.000996776989526
413 1 -0.023034375 -0.00125 0.010040625 7.15663543108e-05
414 1 -0.023034375 -0.00125 0.011221875 0.00125600093417
415 1 -0.023034375 -0.00125 0.012403125 0.00263626000393
416 1 -0.023034375 -0.00125 0.013584375 6.87978875353e-06
417 1 -0.023034375 -0.00125 0.014765625 5.41270814698e-17
418 1 -0.023034375 -0.00125 0.015946875 2.56435990431e-26
419 1 -0.023034375 -0.00125 0.017128125 6.58456333644e-94
420 1 -0.023034375 -0.00125 0.018309375 4.37892281259e-99
421 1 -0.023034375 -0.00125 0.019490625 1.02570228003e-113
422 1 -0.023034375 -0.00125 0.020671875 9.06217050144e-58
423 1 -0.023034375 -0.00125 0.021853125 2.05255158015e-127
424 1 -0.023034375 -0.00125 0.023034375 4.47865637119e-133
425 1 -0.023034375 -0.00125 0.024215625 3.32733970018e-116
426 1 -0.023034375 -0.00125 0.025396875 3.80094425602e-34
427 1 -0.023034375 -0.00125 0.026578125 1.11378783044e-18
428 1 -0.023034375 -0.00125 0.027759375 1.32938012588e-15
429 1 -0.021853125 -0.00125 -0.028940625 0.0
430 1 -0.021853125 -0.00125 -0.027759375 0.0
431 1 -0.021853125 -0.00125 -0.026578125 0.0
432 1 -0.021853125 -0.00125 -0.025396875 0.0
433 1 -0.021853125 -0.00125 -0.024215625 0.0
434 1 -0.021853125 -0.00125 -0.023034375 0.0
435 1 -0.021853125 -0.00125 -0.021853125 0.0
436 1 -0.021853125 -0.00125 -0.020671875 1.78615553824e-130
437 1 -0.021853125 -0.00125 -0.019490625 5.25286421808e-53
438 1 -0.021853125 -0.00125 -0.018309375 6.10291202167e-70
439 1 -0.021853125 -0.00125 -0.017128125 2.25097108457e-54
440 1 -0.021853125 -0.00125 -0.015946875 1.1390967053e-20
441 1 -0.021853125 -0.00125 -0.014765625 6.5373922809e-17
442 1 -0.021853125 -0.00125 -0.013584375 9.62937753003e-18
443 1 -0.021853125 -0.00125 -0.012403125 3.65536713942e-12
444 1 -0.021853125 -0.00125 -0.011221875 9.86865205175e-14
445 1 -0.021853125 -0.00125 -0.010040625 1.96692954625e-14
446 1 -0.021853125 -0.00125 -0.008859375 6.09952570154e-11
447 1 -0.021853125 -0.00125 -0.007678125 3.43424535384e-07
448 1 -0.021853125 -0.00125 -0.006496875 3.22834087822e-12
449 1 -0.021853125 -0.00125 -0.005315625 8.12154029222e-10
450 1 -0.021853125 -0.00125 -0.004134375 1.44556549719e-07
451 1 -0.021853125 -0.00125 -0.002953125 6.19965999328e-11
452 1 -0.021853125 -0.00125 -0.001771875 9.23539059609e-12
453 1 -0.021853125 -0.00125 -0.000590625 5.03233294797e-11
454 1 -0.021853125 -0.00125 0.000590625 9.02163698827e-11
455 1 -0.021853125 -0.00125 0.001771875 3.81529986229e-11
456 1 -0.021853125 -0.00125 0.002953125 2.55515733734e-08
457 1 -0.021853125 -0.00125 0.004134375 1.71741134482e-07
458 1 -0.021853125 -0.00125 0.005315625 6.15770598285e-08
459 1 -0.021853125 -0.00125 0.006496875 7.53323138223e-06
460 1 -0.021853125 -0.00125 0.007678125 1.94118176095e-05
461 1 -0.021853125 -0.00125 0.008859375 0.00302500029415
462 1 -0.021853125 -0.00125 0.010040625 0.0170457043382
463 1 -0.021853125 -0.00125 0.011221875 0.0249055117642
464 1 -0.021853125 -0.00125 0.012403125 0.0164010646037
465 1 -0.021853125 -0.00125 0.013584375 0.000160227125105
466 1 -0.021853125 -0.00125 0.014765625 2.61614697488e-05
467 1 -0.021853125 -0.00125 0.015946875 5.73363658931e-05
468 1 -0.021853125 -0.00125 0.017128125 7.46399342807e-16
469 1 -0.021853125 -0.00125 0.018309375 1.25500787538e-63
470 1 -0.021853125 -0.00125 0.019490625 5.05065341959e-66
471 1 -0.021853125 -0.00125 0.020671875 4.19831297592e-37
472 1 -0.021853125 -0.00125 0.021853125 1.39756858244e-65
473 1 -0.021853125 -0.00125 0.023034375 4.80463470117e-83
474 1 -0.021853125 -0.00125 0.024215625 3.99615745483e-47
475 1 -0.021853125 -0.00125 0.025396875 1.56305492537e-31
476 1 -0.021853125 -0.00125 0.026578125 2.22615028531e-14
477 1 -0.021853125 -0.00125 0.027759375 8.18591289859e-12
478 1 -0.021853125 -0.00125 0.028940625 1.07174590302e-14
479 1 -0.020671875 -0.00125 -0.030121875 0.0
480 1 -0.020671875 -0.00125 -0.028940625 0.0
481 1 -0.020671875 -0.00125 -0.027759375 0.0
482 1 -0.020671875 -0.00125 -0.026578125 0.0
483 1 -0.020671875 -0.00125 -0.025396875 0.0
484 1 -0.020671875 -0.00125 -0.024215625 0.0
485 1 -0.020671875 -0.00125 -0.023034375 0.0
486 1 -0.020671875 -0.00125 -0.021853125 4.41217250123e-132
487 1 -0.020671875 -0.00125 -0.020671875 4.09418156411e-142
488 1 -0.020671875 -0.00125 -0.019490625 1.93029527899e-50
489 1 -0.020671875 -0.00125 -0.018309375 1.26530050368e-39
490 1 -0.020671875 -0.00125 -0.017128125 4.11977635223e-22
491 1 -0.020671875 -0.00125 -0.015946875 2.56423529421e-23
492 1 -0.020671875 -0.00125 -0.014765625 1.20157700822e-08
493 1 -0.020671875 -0.00125 -0.013584375 9.51571849193e-21
494 1 -0.020671875 -0.00125 -0.012403125 6.2026627196e-10
495 1 -0.020671875 -0.00125 -0.011221875 2.42420442591e-14
496 1 -0.020671875 -0.00125 -0.010040625 3.10931798559e-07
497 1 -0.020671875 -0.00125 -0.008859375 2.72575968736e-08
498 1 -0.020671875 -0.00125 -0.007678125 4.15715574997e-11
499 1 -0.020671875 -0.00125 -0.006496875 5.44188906063e-14
500 1 -0.020671875 -0.00125 -0.005315625 1.39567102117e-10
501 1 -0.020671875 -0.00125 -0.004134375 6.66182138634e-08
502 1 -0.020671875 -0.00125 -0.002953125 2.68743523405e-17
503 1 -0.020671875 -0.00125 -0.001771875 2.38481891389e-13
504 1 -0.020671875 -0.00125 -0.000590625 5.30237173459e-09
505 1 -0.020671875 -0.00125 0.000590625 8.69775124206e-09
506 1 -0.020671875 -0.00125 0.001771875 7.62723788045e-11
507 1 -0.020671875 -0.00125 0.002953125 1.3614729217e-12
508 1 -0.020671875 -0.00125 0.004134375 2.42433087511e-09
509 1 -0.020671875 -0.00125 0.005315625 8.4493548556e-07
510 1 -0.020671875 -0.00125 0.006496875 4.65585574335e-06
511 1 -0.020671875 -0.00125 0.007678125 0.000119131331827
512 1 -0.020671875 -0.00125 0.008859375 8.23892347136e-05
513 1 -0.020671875 -0.00125 0.010040625 0.014092021803
514 1 -0.020671875 -0.00125 0.011221875 0.0121736505041
515 1 -0.020671875 -0.00125 0.012403125 0.0122938301093
516 1 -0.020671875 -0.00125 0.013584375 0.00180529083965
517 1 -0.020671875 -0.00125 0.014765625 0.000417811192624
518 1 -0.020671875 -0.00125 0.015946875 0.00061659001195
519 1 -0.020671875 -0.00125 0.017128125 8.1298628961e-08
520 1 -0.020671875 -0.00125 0.018309375 3.41237264917e-17
521 1 -0.020671875 -0.00125 0.019490625 2.51341998771e-19
522 1 -0.020671875 -0.00125 0.020671875 3.95968312084e-24
523 1 -0.020671875 -0.00125 0.021853125 1.21195229207e-32
524 1 -0.020671875 -0.00125 0.023034375 3.26975555116e-47
525 1 -0.020671875 -0.00125 0.024215625 2.90892927638e-35
526 1 -0.020671875 -0.00125 0.025396875 3.00007357582e-14
527 1 -0.020671875 -0.00125 0.026578125 1.27685608335e-12
528 1 -0.020671875 -0.00125 0.027759375 6.46753436284e-13
529 1 -0.020671875 -0.00125 0.028940625 4.5446548579e-25
530 1 -0.020671875 -0.00125 0.030121875 1.07429561271e-64
531 1 -0.019490625 -0.00125 -0.031303125 0.0
532 1 -0.019490625 -0.00125 -0.030121875 0.0
533 1 -0.019490625 -0.00125 -0.028940625 0.0
534 1 -0.019490625 -0.00125 -0.027759375 0.0
535 1 -0.019490625 -0.00125 -0.026578125 0.0
536 1 -0.019490625 -0.00125 -0.025396875 0.0
537 1 -0.019490625 -0.00125 -0.024215625 3.4849574346e-194
538 1 -0.019490625 -0.00125 -0.023034375 3.04124153818e-138
539 1 -0.019490625 -0.00125 -0.021853125 8.16823242633e-98
540 1 -0.019490625 -0.00125 -0.020671875 4.22171291579e-62
541 1 -0.019490625 -0.00125 -0.019490625 2.77688288036e-21
542 1 -0.019490625 -0.00125 -0.018309375 8.01958374875e-18
543 1 -0.019490625 -0.00125 -0.017128125 4.74409719385e-16
544 1 -0.019490625 -0.00125 -0.015946875 2.30572124857e-13
545 1 -0.019490625 -0.00125 -0.014765625 2.68546245104e-09
546 1 -0.019490625 -0.00125 -0.013584375 8.41642667905e-07
547 1 -0.019490625 -0.00125 -0.012403125 9.81210856193e-07
548 1 -0.019490625 -0.00125 -0.011221875 2.73329284274e-06
549 1 -0.019490625 -0.00125 -0.010040625 0.000710791645524
550 1 -0.019490625 -0.00125 -0.008859375 1.09175423856e-05
551 1 -0.019490625 -0.00125 -0.007678125 1.28936204225e-07
552 1 -0.019490625 -0.00125 -0.006496875 6.14019414028e-08
553 1 -0.019490625 -0.00125 -0.005315625 3.05050964545e-05
554 1 -0.019490625 -0.00125 -0.004134375 3.54904464691e-07