ITEM: TIMESTEP
0
ITEM: NUMBER OF ATOMS
3080
ITEM: BOX BOUNDS ss ss ss
-3.7007399999999996e-02 3.7007399999999996e-02
-2.0002499999999999e-03 2.5000000000000004e-07
-3.7007399999999996e-02 3.7007399999999996e-02
ITEM: ATOMS id type x y z c_1
0 1 -0.037209375 -0.00125 -0.000590625 0.756243136449
1 1 -0.036028125 -0.00125 -0.007678125 0.0
2 1 -0.036028125 -0.00125 -0.006496875 0.0
3 1 -0.036028125 -0.00125 -0.005315625 0.0
4 1 -0.036028125 -0.00125 -0.004134375 0.0
5 1 -0.036028125 -0.00125 -0.002953125 0.0
6 1 -0.036028125 -0.00125 -0.001771875 0.0
7 1 -0.036028125 -0.00125 -0.000590625 0.0
8 1 -0.036028125 -0.00125 0.000590625 0.0
9 1 -0.036028125 -0.00125 0.001771875 0.0
10 1 -0.036028125 -0.00125 0.002953125 0.0
11 1 -0.036028125 -0.00125 0.004134375 0.0
12 1 -0.036028125 -0.00125 0.005315625 0.0
13 1 -0.036028125 -0.00125 0.006496875 0.0
14 1 -0.036028125 -0.00125 0.007678125 0.0
15 1 -0.034846875 -0.00125 -0.011221875 1.16196453389e-169
16 1 -0.034846875 -0.00125 -0.010040625 0.0
17 1 -0.034846875 -0.00125 -0.008859375 0.0
18 1 -0.034846875 -0.00125 -0.007678125 0.0
19 1 -0.034846875 -0.00125 -0.006496875 0.0
20 1 -0.034846875 -0.00125 -0.005315625 0.0
21 1 -0.034846875 -0.00125 -0.004134375 0.0
22 1 -0.034846875 -0.00125 -0.002953125 0.0
23 1 -0.034846875 -0.00125 -0.001771875 0.0
24 1 -0.034846875 -0.00125 -0.000590625 0.0
25 1 -0.034846875 -0.00125 0.000590625 0.0
26 1 -0.034846875 -0.00125 0.001771875 0.0
27 1 -0.034846875 -0.00125 0.002953125 0.0
28 1 -0.034846875 -0.00125 0.004134375 0.0
29 1 -0.034846875 -0.00125 0.005315625 0.0
30 1 -0.034846875 -0.00125 0.006496875 0.0
31 1 -0.034846875 -0.00125 0.007678125 0.0
32 1 -0.034846875 -0.00125 0.008859375 0.0
33 1 -0.034846875 -0.00125 0.010040625 0.0
34 1 -0.034846875 -0.00125 0.011221875 0.0
35 1 -0.033665625 -0.00125 -0.013584375 0.0
36 1 -0.033665625 -0.00125 -0.012403125 8.3281467739e-174
37 1 -0.033665625 -0.00125 -0.011221875 6.94064784909e-300
38 1 -0.033665625 -0.00125 -0.010040625 0.0
39 1 -0.033665625 -0.00125 -0.008859375 0.0
40 1 -0.033665625 -0.00125 -0.007678125 0.0
41 1 -0.033665625 -0.00125 -0.006496875 0.0
42 1 -0.033665625 -0.00125 -0.005315625 0.0
43 1 -0.033665625 -0.00125 -0.004134375 0.0
44 1 -0.033665625 -0.00125 -0.002953125 0.0
45 1 -0.033665625 -0.00125 -0.001771875 0.0
46 1 -0.033665625 -0.00125 -0.000590625 0.0
47 1 -0.033665625 -0.00125 0.000590625 0.0
48 1 -0.033665625 -0.00125 0.001771875 0.0
49 1 -0.033665625 -0.00125 0.002953125 0.0
50 1 -0.033665625 -0.00125 0.004134375 0.0
51 1 -0.033665625 -0.00125 0.005315625 0.0
52 1 -0.033665625 -0.00125 0.006496875 0.0
53 1 -0.033665625 -0.00125 0.007678125 0.0
54 1 -0.033665625 -0.00125 0.008859375 0.0
55 1 -0.033665625 -0.00125 0.010040625 0.0
56 1 -0.033665625 -0.00125 0.011221875 0.0
57 1 -0.033665625 -0.00125 0.012403125 3.14168206321e-153
58 1 -0.033665625 -0.00125 0.013584375 0.0
59 1 -0.032484375 -0.00125 -0.018309375 0.0
60 1 -0.032484375 -0.00125 -0.017128125 0.0
61 1 -0.032484375 -0.00125 -0.015946875 0.0
62 1 -0.032484375 -0.00125 -0.014765625 0.0
63 1 -0.032484375 -0.00125 -0.013584375 0.0
64 1 -0.032484375 -0.00125 -0.012403125 0.0
65 1 -0.032484375 -0.00125 -0.011221875 0.0
66 1 -0.032484375 -0.00125 -0.010040625 0.0
67 1 -0.032484375 -0.00125 -0.008859375 0.0
68 1 -0.032484375 -0.00125 -0.007678125 0.0
69 1 -0.032484375 -0.00125 -0.006496875 0.0
70 1 -0.032484375 -0.00125 -0.005315625 0.0
71 1 -0.032484375 -0.00125 -0.004134375 0.0
72 1 -0.032484375 -0.00125 -0.002953125 0.0
73 1 -0.032484375 -0.00125 -0.001771875 0.0
74 1 -0.032484375 -0.00125 -0.000590625 0.0
75 1 -0.032484375 -0.00125 0.000590625 0.0
76 1 -0.032484375 -0.00125 0.001771875 0.0
77 1 -0.032484375 -0.00125 0.002953125 0.0
78 1 -0.032484375 -0.00125 0.004134375 0.0
79 1 -0.032484375 -0.00125 0.005315625 0.0
80 1 -0.032484375 -0.00125 0.006496875 0.0
81 1 -0.032484375 -0.00125 0.007678125 0.0
82 1 -0.032484375 -0.00125 0.008859375 0.0
83 1 -0.032484375 -0.00125 0.010040625 0.0
84 1 -0.032484375 -0.00125 0.011221875 0.0
85 1 -0.032484375 -0.00125 0.012403125 0.0
86 1 -0.032484375 -0.00125 0.013584375 0.0
87 1 -0.032484375 -0.00125 0.014765625 0.0
88 1 -0.032484375 -0.00125 0.015946875 0.0
89 1 -0.032484375 -0.00125 0.017128125 0.0
90 1 -0.032484375 -0.00125 0.018309375 0.0
91 1 -0.031303125 -0.00125 -0.019490625 0.0
92 1 -0.031303125 -0.00125 -0.018309375 0.0
93 1 -0.031303125 -0.00125 -0.017128125 0.0
94 1 -0.031303125 -0.00125 -0.015946875 0.0
95 1 -0.031303125 -0.00125 -0.014765625 1.82858514854e-301
96 1 -0.031303125 -0.00125 -0.013584375 2.22144729708e-299
97 1 -0.031303125 -0.00125 -0.012403125 0.0
98 1 -0.031303125 -0.00125 -0.011221875 0.0
99 1 -0.031303125 -0.00125 -0.010040625 0.0
100 1 -0.031303125 -0.00125 -0.008859375 0.0
101 1 -0.031303125 -0.00125 -0.007678125 0.0
102 1 -0.031303125 -0.00125 -0.006496875 0.0
103 1 -0.031303125 -0.00125 -0.005315625 0.0
104 1 -0.031303125 -0.00125 -0.004134375 0.0
105 1 -0.031303125 -0.00125 -0.002953125 0.0
106 1 -0.031303125 -0.00125 -0.001771875 0.0
107 1 -0.031303125 -0.00125 -0.000590625 0.0
108 1 -0.031303125 -0.00125 0.000590625 0.0
109 1 -0.031303125 -0.00125 0.001771875 0.0
110 1 -0.031303125 -0.00125 0.002953125 0.0
111 1 -0.031303125 -0.00125 0.004134375 0.0
112 1 -0.031303125 -0.00125 0.005315625 0.0
113 1 -0.031303125 -0.00125 0.006496875 0.0
114 1 -0.031303125 -0.00125 0.007678125 0.0
115 1 -0.031303125 -0.00125 0.008859375 0.0
116 1 -0.031303125 -0.00125 0.010040625 0.0
117 1 -0.031303125 -0.00125 0.011221875 0.0
118 1 -0.031303125 -0.00125 0.012403125 0.0
119 1 -0.031303125 -0.00125 0.013584375 0.0
120 1 -0.031303125 -0.00125 0.014765625 0.0
121 1 -0.031303125 -0.00125 0.015946875 0.0
122 1 -0.031303125 -0.00125 0.017128125 0.0
123 1 -0.031303125 -0.00125 0.018309375 0.0
124 1 -0.031303125 -0.00125 0.019490625 0.0
125 1 -0.030121875 -0.00125 -0.020671875 0.0
126 1 -0.030121875 -0.00125 -0.019490625 0.0
127 1 -0.030121875 -0.00125 -0.018309375 0.0
128 1 -0.030121875 -0.00125 -0.017128125 0.0
129 1 -0.030121875 -0.00125 -0.015946875 0.0
130 1 -0.030121875 -0.00125 -0.014765625 0.0
131 1 -0.030121875 -0.00125 -0.013584375 0.0
132 1 -0.030121875 -0.00125 -0.012403125 2.22866284803e-299
133 1 -0.030121875 -0.00125 -0.011221875 0.0
134 1 -0.030121875 -0.00125 -0.010040625 0.0
135 1 -0.030121875 -0.00125 -0.008859375 0.0
136 1 -0.030121875 -0.00125 -0.007678125 0.0
137 1 -0.030121875 -0.00125 -0.006496875 0.0
138 1 -0.030121875 -0.00125 -0.005315625 0.0
139 1 -0.030121875 -0.00125 -0.004134375 0.0
140 1 -0.030121875 -0.00125 -0.002953125 0.0
141 1 -0.030121875 -0.00125 -0.001771875 0.0
142 1 -0.030121875 -0.00125 -0.000590625 0.0
143 1 -0.030121875 -0.00125 0.000590625 0.0
144 1 -0.030121875 -0.00125 0.001771875 0.0
145 1 -0.030121875 -0.00125 0.002953125 0.0
146 1 -0.030121875 -0.00125 0.004134375 0.0
147 1 -0.030121875 -0.00125 0.005315625 0.0
148 1 -0.030121875 -0.00125 0.006496875 0.0
149 1 -0.030121875 -0.00125 0.007678125 0.0
150 1 -0.030121875 -0.00125 0.008859375 0.0
151 1 -0.030121875 -0.00125 0.010040625 0.0
152 1 -0.030121875 -0.00125 0.011221875 0.0
153 1 -0.030121875 -0.00125 0.012403125 0.0
154 1 -0.030121875 -0.00125 0.013584375 0.0
155 1 -0.030121875 -0.00125 0.014765625 0.0
156 1 -0.030121875 -0.00125 0.015946875 0.0
157 1 -0.030121875 -0.00125 0.017128125 0.0
158 1 -0.030121875 -0.00125 0.018309375 0.0
159 1 -0.030121875 -0.00125 0.019490625 0.0
160 1 -0.030121875 -0.00125 0.020671875 0.0
161 1 -0.028940625 -0.00125 -0.021853125 0.0
162 1 -0.028940625 -0.00125 -0.020671875 0.0
163 1 -0.028940625 -0.00125 -0.019490625 0.0
164 1 -0.028940625 -0.00125 -0.018309375 0.0
165 1 -0.028940625 -0.00125 -0.017128125 0.0
166 1 -0.028940625 -0.00125 -0.015946875 0.0
167 1 -0.028940625 -0.00125 -0.014765625 0.0
168 1 -0.028940625 -0.00125 -0.013584375 0.0
169 1 -0.028940625 -0.00125 -0.012403125 0.0
170 1 -0.028940625 -0.00125 -0.011221875 0.0
171 1 -0.028940625 -0.00125 -0.010040625 0.0
172 1 -0.028940625 -0.00125 -0.008859375 0.0
173 1 -0.028940625 -0.00125 -0.007678125 0.0
174 1 -0.028940625 -0.00125 -0.006496875 0.0
175 1 -0.028940625 -0.00125 -0.005315625 0.0
176 1 -0.028940625 -0.00125 -0.004134375 0.0
177 1 -0.028940625 -0.00125 -0.002953125 0.0
178 1 -0.028940625 -0.00125 -0.001771875 0.0
179 1 -0.028940625 -0.00125 -0.000590625 2.50966489001e-210
180 1 -0.028940625 -0.00125 0.000590625 2.42483530573e-275
181 1 -0.028940625 -0.00125 0.001771875 0.0
182 1 -0.028940625 -0.00125 0.002953125 1.28432822851e-246
183 1 -0.028940625 -0.00125 0.004134375 0.0
184 1 -0.028940625 -0.00125 0.005315625 0.0
185 1 -0.028940625 -0.00125 0.006496875 0.0
186 1 -0.028940625 -0.00125 0.007678125 0.0
187 1 -0.028940625 -0.00125 0.008859375 0.0
188 1 -0.028940625 -0.00125 0.010040625 0.0
189 1 -0.028940625 -0.00125 0.011221875 0.0
190 1 -0.028940625 -0.00125 0.012403125 0.0
191 1 -0.028940625 -0.00125 0.013584375 0.0
192 1 -0.028940625 -0.00125 0.014765625 0.0
193 1 -0.028940625 -0.00125 0.015946875 0.0
194 1 -0.028940625 -0.00125 0.017128125 0.0
195 1 -0.028940625 -0.00125 0.018309375 0.0
196 1 -0.028940625 -0.00125 0.019490625 0.0
197 1 -0.028940625 -0.00125 0.020671875 0.0
198 1 -0.028940625 -0.00125 0.021853125 0.0
199 1 -0.027759375 -0.00125 -0.024215625 0.0
200 1 -0.027759375 -0.00125 -0.023034375 0.0
201 1 -0.027759375 -0.00125 -0.021853125 0.0
202 1 -0.027759375 -0.00125 -0.020671875 0.0
203 1 -0.027759375 -0.00125 -0.019490625 0.0
204 1 -0.027759375 -0.00125 -0.018309375 0.0
205 1 -0.027759375 -0.00125 -0.017128125 0.0
206 1 -0.027759375 -0.00125 -0.015946875 0.0
207 1 -0.027759375 -0.00125 -0.014765625 0.0
208 1 -0.027759375 -0.00125 -0.013584375 0.0
209 1 -0.027759375 -0.00125 -0.012403125 7.94146225398e-305
210 1 -0.027759375 -0.00125 -0.011221875 0.0
211 1 -0.027759375 -0.00125 -0.010040625 0.0
212 1 -0.027759375 -0.00125 -0.008859375 0.0
213 1 -0.027759375 -0.00125 -0.007678125 0.0
214 1 -0.027759375 -0.00125 -0.006496875 6.1240339389e-192
215 1 -0.027759375 -0.00125 -0.005315625 8.10117622441e-210
216 1 -0.027759375 -0.00125 -0.004134375 0.0
217 1 -0.027759375 -0.00125 -0.002953125 2.71090278278e-137
218 1 -0.027759375 -0.00125 -0.001771875 0.0
219 1 -0.027759375 -0.00125 -0.000590625 1.47006696426e-49
220 1 -0.027759375 -0.00125 0.000590625 9.97758072784e-64
221 1 -0.027759375 -0.00125 0.001771875 7.36164621737e-100
222 1 -0.027759375 -0.00125 0.002953125 1.97613408507e-82
223 1 -0.027759375 -0.00125 0.004134375 1.86903149816e-87
224 1 -0.027759375 -0.00125 0.005315625 2.77297011018e-157
225 1 -0.027759375 -0.00125 0.006496875 0.0
226 1 -0.027759375 -0.00125 0.007678125 0.0
227 1 -0.027759375 -0.00125 0.008859375 5.65661798669e-132
228 1 -0.027759375 -0.00125 0.010040625 2.84959392175e-217
229 1 -0.027759375 -0.00125 0.011221875 0.0
230 1 -0.027759375 -0.00125 0.012403125 0.0
231 1 -0.027759375 -0.00125 0.013584375 0.0
232 1 -0.027759375 -0.00125 0.014765625 0.0
233 1 -0.027759375 -0.00125 0.015946875 0.0
234 1 -0.027759375 -0.00125 0.017128125 0.0
235 1 -0.027759375 -0.00125 0.018309375 0.0
236 1 -0.027759375 -0.00125 0.019490625 0.0
237 1 -0.027759375 -0.00125 0.020671875 0.0
238 1 -0.027759375 -0.00125 0.021853125 1.2209877411e-302
239 1 -0.027759375 -0.00125 0.023034375 0.0
240 1 -0.027759375 -0.00125 0.024215625 0.0
241 1 -0.026578125 -0.00125 -0.026578125 0.0
242 1 -0.026578125 -0.00125 -0.025396875 0.0
243 1 -0.026578125 -0.00125 -0.024215625 0.0
244 1 -0.026578125 -0.00125 -0.023034375 0.0
245 1 -0.026578125 -0.00125 -0.021853125 0.0
246 1 -0.026578125 -0.00125 -0.020671875 0.0
247 1 -0.026578125 -0.00125 -0.019490625 1.13927282497e-127
248 1 -0.026578125 -0.00125 -0.018309375 0.0
249 1 -0.026578125 -0.00125 -0.017128125 0.0
250 1 -0.026578125 -0.00125 -0.015946875 0.0
251 1 -0.026578125 -0.00125 -0.014765625 0.0
252 1 -0.026578125 -0.00125 -0.013584375 0.0
253 1 -0.026578125 -0.00125 -0.012403125 1.4638054885e-127
254 1 -0.026578125 -0.00125 -0.011221875 3.73976096852e-109
255 1 -0.026578125 -0.00125 -0.010040625 0.0
256 1 -0.026578125 -0.00125 -0.008859375 4.00237598795e-229
257 1 -0.026578125 -0.00125 -0.007678125 3.15013532353e-70
258 1 -0.026578125 -0.00125 -0.006496875 9.37327157252e-72
259 1 -0.026578125 -0.00125 -0.005315625 7.33463317311e-64
260 1 -0.026578125 -0.00125 -0.004134375 1.54439759425e-96
261 1 -0.026578125 -0.00125 -0.002953125 1.789962746e-113
262 1 -0.026578125 -0.00125 -0.001771875 2.5703193415e-57
263 1 -0.026578125 -0.00125 -0.000590625 2.26082788826e-25
264 1 -0.026578125 -0.00125 0.000590625 7.30591395929e-28
265 1 -0.026578125 -0.00125 0.001771875 1.64059059306e-25
266 1 -0.026578125 -0.00125 0.002953125 1.32112893829e-29
267 1 -0.026578125 -0.00125 0.004134375 1.08594310951e-54
268 1 -0.026578125 -0.00125 0.005315625 1.95396646501e-55
269 1 -0.026578125 -0.00125 0.006496875 9.78225195495e-115
270 1 -0.026578125 -0.00125 0.007678125 1.46659396575e-54
271 1 -0.026578125 -0.00125 0.008859375 3.3572999558e-83
272 1 -0.026578125 -0.00125 0.010040625 5.11043080864e-121
273 1 -0.026578125 -0.00125 0.011221875 5.59639925591e-211
274 1 -0.026578125 -0.00125 0.012403125 0.0
275 1 -0.026578125 -0.00125 0.013584375 0.0
276 1 -0.026578125 -0.00125 0.014765625 0.0
277 1 -0.026578125 -0.00125 0.015946875 0.0
278 1 -0.026578125 -0.00125 0.017128125 0.0
279 1 -0.026578125 -0.00125 0.018309375 4.54122042387e-164
280 1 -0.026578125 -0.00125 0.019490625 1.84696445126e-186
281 1 -0.026578125 -0.00125 0.020671875 0.0
282 1 -0.026578125 -0.00125 0.021853125 0.0
283 1 -0.026578125 -0.00125 0.023034375 0.0
284 1 -0.026578125 -0.00125 0.024215625 0.0
285 1 -0.026578125 -0.00125 0.025396875 0.0
286 1 -0.026578125 -0.00125 0.026578125 0.0
287 1 -0.025396875 -0.00125 -0.026578125 0.0
288 1 -0.025396875 -0.00125 -0.025396875 0.0
289 1 -0.025396875 -0.00125 -0.024215625 0.0
290 1 -0.025396875 -0.00125 -0.023034375 0.0
291 1 -0.025396875 -0.00125 -0.021853125 0.0
292 1 -0.025396875 -0.00125 -0.020671875 0.0
293 1 -0.025396875 -0.00125 -0.019490625 2.43230399197e-212
294 1 -0.025396875 -0.00125 -0.018309375 0.0
295 1 -0.025396875 -0.00125 -0.017128125 0.0
296 1 -0.025396875 -0.00125 -0.015946875 0.0
297 1 -0.025396875 -0.00125 -0.014765625 7.17030350694e-193
298 1 -0.025396875 -0.00125 -0.013584375 1.43101038544e-238
299 1 -0.025396875 -0.00125 -0.012403125 6.36229262705e-76
300 1 -0.025396875 -0.00125 -0.011221875 8.06238291534e-144
301 1 -0.025396875 -0.00125 -0.010040625 1.37789957089e-63
302 1 -0.025396875 -0.00125 -0.008859375 9.39621026327e-81
303 1 -0.025396875 -0.00125 -0.007678125 2.59895634345e-59
304 1 -0.025396875 -0.00125 -0.006496875 2.73172455812e-123
305 1 -0.025396875 -0.00125 -0.005315625 1.0138702881e-49
306 1 -0.025396875 -0.00125 -0.004134375 1.48317864222e-79
307 1 -0.025396875 -0.00125 -0.002953125 6.11721833817e-47
308 1 -0.025396875 -0.00125 -0.001771875 1.16554781966e-33
309 1 -0.025396875 -0.00125 -0.000590625 1.01393792903e-40
310 1 -0.025396875 -0.00125 0.000590625 7.47919159772e-22
311 1 -0.025396875 -0.00125 0.001771875 2.53927098433e-24
312 1 -0.025396875 -0.00125 0.002953125 1.30454277486e-20
313 1 -0.025396875 -0.00125 0.004134375 1.11317001869e-14
314 1 -0.025396875 -0.00125 0.005315625 3.2257466367e-20
315 1 -0.025396875 -0.00125 0.006496875 8.02789208508e-49
316 1 -0.025396875 -0.00125 0.007678125 1.02043088633e-35
317 1 -0.025396875 -0.00125 0.008859375 2.67231359972e-43
318 1 -0.025396875 -0.00125 0.010040625 4.86689288113e-30
319 1 -0.025396875 -0.00125 0.011221875 5.85576104029e-48
320 1 -0.025396875 -0.00125 0.012403125 1.55451008578e-132
321 1 -0.025396875 -0.00125 0.013584375 6.03420665147e-119
322 1 -0.025396875 -0.00125 0.014765625 0.0
323 1 -0.025396875 -0.00125 0.015946875 0.0
324 1 -0.025396875 -0.00125 0.017128125 2.91723761109e-211
325 1 -0.025396875 -0.00125 0.018309375 1.33046761278e-155
326 1 -0.025396875 -0.00125 0.019490625 7.22639983304e-130
327 1 -0.025396875 -0.00125 0.020671875 0.0
328 1 -0.025396875 -0.00125 0.021853125 0.0
329 1 -0.025396875 -0.00125 0.023034375 0.0
330 1 -0.025396875 -0.00125 0.024215625 0.0
331 1 -0.025396875 -0.00125 0.025396875 0.0
332 1 -0.025396875 -0.00125 0.026578125 0.0
333 1 -0.024215625 -0.00125 -0.027759375 0.0
334 1 -0.024215625 -0.00125 -0.026578125 0.0
335 1 -0.024215625 -0.00125 -0.025396875 0.0
336 1 -0.024215625 -0.00125 -0.024215625 0.0
337 1 -0.024215625 -0.00125 -0.023034375 0.0
338 1 -0.024215625 -0.00125 -0.021853125 0.0
339 1 -0.024215625 -0.00125 -0.020671875 0.0
340 1 -0.024215625 -0.00125 -0.019490625 5.57993321931e-167
341 1 -0.024215625 -0.00125 -0.018309375 0.0
342 1 -0.024215625 -0.00125 -0.017128125 0.0
343 1 -0.024215625 -0.00125 -0.015946875 1.35603326321e-284
344 1 -0.024215625 -0.00125 -0.014765625 1.14292979063e-93
345 1 -0.024215625 -0.00125 -0.013584375 5.07431291859e-67
346 1 -0.024215625 -0.00125 -0.012403125 1.73140901637e-32
347 1 -0.024215625 -0.00125 -0.011221875 6.46419741301e-41
348 1 -0.024215625 -0.00125 -0.010040625 5.32561935428e-33
349 1 -0.024215625 -0.00125 -0.008859375 5.74700369408e-53
350 1 -0.024215625 -0.00125 -0.007678125 7.93824408629e-62
351 1 -0.024215625 -0.00125 -0.006496875 1.20576022951e-28
352 1 -0.024215625 -0.00125 -0.005315625 1.96119390154e-14
353 1 -0.024215625 -0.00125 -0.004134375 5.13115493772e-09
354 1 -0.024215625 -0.00125 -0.002953125 3.23986217823e-17
355 1 -0.024215625 -0.00125 -0.001771875 1.81821681975e-17
356 1 -0.024215625 -0.00125 -0.000590625 5.91838174461e-14
357 1 -0.024215625 -0.00125 0.000590625 4.22431093645e-09
358 1 -0.024215625 -0.00125 0.001771875 2.7135552176e-09
359 1 -0.024215625 -0.00125 0.002953125 2.01132776704e-05
360 1 -0.024215625 -0.00125 0.004134375 5.55678728638e-07
361 1 -0.024215625 -0.00125 0.005315625 6.82889849309e-11
362 1 -0.024215625 -0.00125 0.006496875 2.20369332187e-31
363 1 -0.024215625 -0.00125 0.007678125 4.07904975504e-24
364 1 -0.024215625 -0.00125 0.008859375 1.76762567521e-29
365 1 -0.024215625 -0.00125 0.010040625 1.18917866562e-20
366 1 -0.024215625 -0.00125 0.011221875 3.58128185884e-19
367 1 -0.024215625 -0.00125 0.012403125 5.47579710272e-18
368 1 -0.024215625 -0.00125 0.013584375 6.51631898928e-45
369 1 -0.024215625 -0.00125 0.014765625 4.17235294224e-64
370 1 -0.024215625 -0.00125 0.015946875 1.31525942723e-167
371 1 -0.024215625 -0.00125 0.017128125 6.25405815969e-114
372 1 -0.024215625 -0.00125 0.018309375 9.16156195774e-86
373 1 -0.024215625 -0.00125 0.019490625 1.81921680952e-274
374 1 -0.024215625 -0.00125 0.020671875 0.0
375 1 -0.024215625 -0.00125 0.021853125 0.0
376 1 -0.024215625 -0.00125 0.023034375 0.0
377 1 -0.024215625 -0.00125 0.024215625 0.0
378 1 -0.024215625 -0.00125 0.025396875 0.0
379 1 -0.024215625 -0.00125 0.026578125 0.0
380 1 -0.024215625 -0.00125 0.027759375 0.0
381 1 -0.023034375 -0.00125 -0.027759375 0.0
382 1 -0.023034375 -0.00125 -0.026578125 0.0
383 1 -0.023034375 -0.00125 -0.025396875 0.0
384 1 -0.023034375 -0.00125 -0.024215625 0.0
385 1 -0.023034375 -0.00125 -0.023034375 0.0
386 1 -0.023034375 -0.00125 -0.021853125 2.61694095136e-180
387 1 -0.023034375 -0.00125 -0.020671875 1.3275921234e-158
388 1 -0.023034375 -0.00125 -0.019490625 1.87643169889e-179
389 1 -0.023034375 -0.00125 -0.018309375 8.11379666803e-225
390 1 -0.023034375 -0.00125 -0.017128125 1.30188198518e-125
391 1 -0.023034375 -0.00125 -0.015946875 2.51457795358e-102
392 1 -0.023034375 -0.00125 -0.014765625 2.78253662077e-53
393 1 -0.023034375 -0.00125 -0.013584375 6.08470609366e-48
394 1 -0.023034375 -0.00125 -0.012403125 1.92549689676e-37
395 1 -0.023034375 -0.00125 -0.011221875 8.14387588695e-33
396 1 -0.023034375 -0.00125 -0.010040625 1.9609367077e-36
397 1 -0.023034375 -0.00125 -0.008859375 2.78209749568e-47
398 1 -0.023034375 -0.00125 -0.007678125 3.39944025087e-28
399 1 -0.023034375 -0.00125 -0.006496875 4.5434846602e-16
400 1 -0.023034375 -0.00125 -0.005315625 8.62792574167e-13
401 1 -0.023034375 -0.00125 -0.004134375 6.94645053253e-20
402 1 -0.023034375 -0.00125 -0.002953125 8.09801718339e-10
403 1 -0.023034375 -0.00125 -0.001771875 3.83062033395e-11
404 1 -0.023034375 -0.00125 -0.000590625 2.41800302163e-07
405 1 -0.023034375 -0.00125 0.000590625 8.97174665512e-07
406 1 -0.023034375 -0.00125 0.001771875 4.28754429776e-05
407 1 -0.023034375 -0.00125 0.002953125 0.00011156555113
408 1 -0.023034375 -0.00125 0.004134375 4.17934373484e-07
409 1 -0.023034375 -0.00125 0.005315625 2.37369666917e-23
410 1 -0.023034375 -0.00125 0.006496875 1.19068562228e-11
411 1 -0.023034375 -0.00125 0.007678125 3.87343433084e-12
412 1 -0.023034375 -0.00125 0.008859375 2.57736338312e-16
413 1 -0.023034375 -0.00125 0.010040625 7.86191503768e-30
414 1 -0.023034375 -0.00125 0.011221875 1.06413773611e-28
415 1 -0.023034375 -0.00125 0.012403125 7.09626523357e-32
416 1 -0.023034375 -0.00125 0.013584375 3.73744942042e-43
417 1 -0.023034375 -0.00125 0.014765625 3.09518753507e-51
418 1 -0.023034375 -0.00125 0.015946875 2.13351634078e-64
419 1 -0.023034375 -0.00125 0.017128125 2.77813381828e-129
420 1 -0.023034375 -0.00125 0.018309375 5.0174719778e-105
421 1 -0.023034375 -0.00125 0.019490625 7.97907675285e-127
422 1 -0.023034375 -0.00125 0.020671875 0.0
423 1 -0.023034375 -0.00125 0.021853125 0.0
424 1 -0.023034375 -0.00125 0.023034375 0.0
425 1 -0.023034375 -0.00125 0.024215625 0.0
426 1 -0.023034375 -0.00125 0.025396875 0.0
427 1 -0.023034375 -0.00125 0.026578125 0.0
428 1 -0.023034375 -0.00125 0.027759375 0.0
429 1 -0.021853125 -0.00125 -0.028940625 0.0
430 1 -0.021853125 -0.00125 -0.027759375 0.0
431 1 -0.021853125 -0.00125 -0.026578125 0.0
432 1 -0.021853125 -0.00125 -0.025396875 0.0
433 1 -0.021853125 -0.00125 -0.024215625 0.0
434 1 -0.021853125 -0.00125 -0.023034375 0.0
435 1 -0.021853125 -0.00125 -0.021853125 1.63153185881e-38
436 1 -0.021853125 -0.00125 -0.020671875 1.32186133354e-57
437 1 -0.021853125 -0.00125 -0.019490625 1.22556866229e-150
438 1 -0.021853125 -0.00125 -0.018309375 1.26876736511e-173
439 1 -0.021853125 -0.00125 -0.017128125 1.41823829963e-51
440 1 -0.021853125 -0.00125 -0.015946875 4.6873559861e-23
441 1 -0.021853125 -0.00125 -0.014765625 2.06355070815e-19
442 1 -0.021853125 -0.00125 -0.013584375 1.70797539247e-22
443 1 -0.021853125 -0.00125 -0.012403125 1.27955685345e-16
444 1 -0.021853125 -0.00125 -0.011221875 7.59102725838e-16
445 1 -0.021853125 -0.00125 -0.010040625 5.39928914352e-25
446 1 -0.021853125 -0.00125 -0.008859375 6.51376832784e-21
447 1 -0.021853125 -0.00125 -0.007678125 6.1654997787e-08
448 1 -0.021853125 -0.00125 -0.006496875 6.2644320056e-10
449 1 -0.021853125 -0.00125 -0.005315625 6.90831763515e-13
450 1 -0.021853125 -0.00125 -0.004134375 2.11405086834e-07
451 1 -0.021853125 -0.00125 -0.002953125 1.69083554817e-08
452 1 -0.021853125 -0.00125 -0.001771875 7.26040932513e-08
453 1 -0.021853125 -0.00125 -0.000590625 9.19802401157e-05
454 1 -0.021853125 -0.00125 0.000590625 2.18446150628e-05
455 1 -0.021853125 -0.00125 0.001771875 9.75590589335e-07
456 1 -0.021853125 -0.00125 0.002953125 5.8635866075e-07
457 1 -0.021853125 -0.00125 0.004134375 5.51452213111e-09
458 1 -0.021853125 -0.00125 0.005315625 7.0100663941e-10
459 1 -0.021853125 -0.00125 0.006496875 2.48932020008e-12
460 1 -0.021853125 -0.00125 0.007678125 4.01835541749e-16
461 1 -0.021853125 -0.00125 0.008859375 7.53921119055e-10
462 1 -0.021853125 -0.00125 0.010040625 2.30834426145e-20
463 1 -0.021853125 -0.00125 0.011221875 7.80849378821e-27
464 1 -0.021853125 -0.00125 0.012403125 6.17804344809e-23
465 1 -0.021853125 -0.00125 0.013584375 4.0428754517e-40
466 1 -0.021853125 -0.00125 0.014765625 1.72812312248e-26
467 1 -0.021853125 -0.00125 0.015946875 1.17430858502e-31
468 1 -0.021853125 -0.00125 0.017128125 2.99243615142e-49
469 1 -0.021853125 -0.00125 0.018309375 1.02730570718e-80
470 1 -0.021853125 -0.00125 0.019490625 6.08624992717e-86
471 1 -0.021853125 -0.00125 0.020671875 1.01253533076e-273
472 1 -0.021853125 -0.00125 0.021853125 0.0
473 1 -0.021853125 -0.00125 0.023034375 0.0
474 1 -0.021853125 -0.00125 0.024215625 0.0
475 1 -0.021853125 -0.00125 0.025396875 0.0
476 1 -0.021853125 -0.00125 0.026578125 0.0
477 1 -0.021853125 -0.00125 0.027759375 4.98908190748e-282
478 1 -0.021853125 -0.00125 0.028940625 0.0
479 1 -0.020671875 -0.00125 -0.030121875 0.0
480 1 -0.020671875 -0.00125 -0.028940625 0.0
481 1 -0.020671875 -0.00125 -0.027759375 0.0
482 1 -0.020671875 -0.00125 -0.026578125 0.0
483 1 -0.020671875 -0.00125 -0.025396875 0.0
484 1 -0.020671875 -0.00125 -0.024215625 1.69221312398e-264
485 1 -0.020671875 -0.00125 -0.023034375 2.18222535691e-158
486 1 -0.020671875 -0.00125 -0.021853125 8.11709330029e-39
487 1 -0.020671875 -0.00125 -0.020671875 1.31455233701e-48
488 1 -0.020671875 -0.00125 -0.019490625 6.51162779492e-76
489 1 -0.020671875 -0.00125 -0.018309375 4.41142498192e-58
490 1 -0.020671875 -0.00125 -0.017128125 1.50772312598e-23
491 1 -0.020671875 -0.00125 -0.015946875 1.97886188536e-24
492 1 -0.020671875 -0.00125 -0.014765625 1.50832185298e-13
493 1 -0.020671875 -0.00125 -0.013584375 5.17043257777e-21
494 1 -0.020671875 -0.00125 -0.012403125 8.89052668143e-17
495 1 -0.020671875 -0.00125 -0.011221875 4.02659084367e-21
496 1 -0.020671875 -0.00125 -0.010040625 2.13016163858e-15
497 1 -0.020671875 -0.00125 -0.008859375 9.28980123685e-17
498 1 -0.020671875 -0.00125 -0.007678125 8.3985334093e-11
499 1 -0.020671875 -0.00125 -0.006496875 2.03667167359e-12
500 1 -0.020671875 -0.00125 -0.005315625 2.42070522883e-17
501 1 -0.020671875 -0.00125 -0.004134375 6.11649255039e-08
502 1 -0.020671875 -0.00125 -0.002953125 1.92604541488e-13
503 1 -0.020671875 -0.00125 -0.001771875 1.35875819535e-08
504 1 -0.020671875 -0.00125 -0.000590625 3.06775673039e-06
505 1 -0.020671875 -0.00125 0.000590625 2.96748837657e-06
506 1 -0.020671875 -0.00125 0.001771875 3.08085122369e-11
507 1 -0.020671875 -0.00125 0.002953125 4.4815338205e-13
508 1 -0.020671875 -0.00125 0.004134375 1.90268729298e-16
509 1 -0.020671875 -0.00125 0.005315625 1.98355462276e-10
510 1 -0.020671875 -0.00125 0.006496875 7.16800430086e-14
511 1 -0.020671875 -0.00125 0.007678125 1.01105393607e-13
512 1 -0.020671875 -0.00125 0.008859375 2.56214875149e-09
513 1 -0.020671875 -0.00125 0.010040625 3.57595257675e-24
514 1 -0.020671875 -0.00125 0.011221875 1.68857197639e-21
515 1 -0.020671875 -0.00125 0.012403125 8.86632284599e-23
516 1 -0.020671875 -0.00125 0.013584375 3.09446108583e-36
517 1 -0.020671875 -0.00125 0.014765625 1.79662551659e-23
518 1 -0.020671875 -0.00125 0.015946875 1.80926104884e-16
519 1 -0.020671875 -0.00125 0.017128125 2.19912308403e-20
520 1 -0.020671875 -0.00125 0.018309375 6.95823368897e-34
521 1 -0.020671875 -0.00125 0.019490625 3.1887300611e-40
522 1 -0.020671875 -0.00125 0.020671875 2.47108810734e-160
523 1 -0.020671875 -0.00125 0.021853125 2.42923448153e-294
524 1 -0.020671875 -0.00125 0.023034375 0.0
525 1 -0.020671875 -0.00125 0.024215625 0.0
526 1 -0.020671875 -0.00125 0.025396875 0.0
527 1 -0.020671875 -0.00125 0.026578125 0.0
528 1 -0.020671875 -0.00125 0.027759375 1.40012419546e-240
529 1 -0.020671875 -0.00125 0.028940625 0.0
530 1 -0.020671875 -0.00125 0.030121875 0.0
531 1 -0.019490625 -0.00125 -0.031303125 1.42592953463e-161
532 1 -0.019490625 -0.00125 -0.030121875 1.97111878976e-273
533 1 -0.019490625 -0.00125 -0.028940625 0.0
534 1 -0.019490625 -0.00125 -0.027759375 2.77956886889e-187
535 1 -0.019490625 -0.00125 -0.026578125 1.25705512337e-75
536 1 -0.019490625 -0.00125 -0.025396875 1.44536901936e-47
537 1 -0.019490625 -0.00125 -0.024215625 6.95361846868e-54
538 1 -0.019490625 -0.00125 -0.023034375 8.51813914917e-65
539 1 -0.019490625 -0.00125 -0.021853125 3.38864791941e-49
540 1 -0.019490625 -0.00125 -0.020671875 5.99110199537e-37
541 1 -0.019490625 -0.00125 -0.019490625 4.55592642973e-23
542 1 -0.019490625 -0.00125 -0.018309375 2.33035125915e-18
543 1 -0.019490625 -0.00125 -0.017128125 1.92089482055e-15
544 1 -0.019490625 -0.00125 -0.015946875 3.16927791547e-13
545 1 -0.019490625 -0.00125 -0.014765625 5.93369822089e-12
546 1 -0.019490625 -0.00125 -0.013584375 3.46503145143e-17
547 1 -0.019490625 -0.00125 -0.012403125 5.76081428203e-24
548 1 -0.019490625 -0.00125 -0.011221875 2.90793157348e-16
549 1 -0.019490625 -0.00125 -0.010040625 2.47163613267e-11
550 1 -0.019490625 -0.00125 -0.008859375 2.54970784961e-13
551 1 -0.019490625 -0.00125 -0.007678125 5.30552649554e-12
552 1 -0.019490625 -0.00125 -0.006496875 4.71537120872e-12
553 1 -0.019490625 -0.00125 -0.005315625 1.33837962329e-07
554 1 -0.019490625 -0.00125 -0.004134375 2.60406522651e-13
555 1 -0.019490625 -0.00125 -0.002953125 3.39369915428e-20
556 1 -0.019490625 -0.00125 -0.001771875 1.83552802052e-15
557 1 -0.019490625 -0.00125 -0.000590625 7.72912344393e-11
558 1 -0.019490625 -0.00125 0.000590625 2.06701452788e-09
559 1 -0.019490625 -0.00125 0.001771875 1.89747456912e-11
560 1 -0.019490625 -0.00125 0.002953125 4.3242387917e-17
561 1 -0.019490625 -0.00125 0.004134375 1.76143921665e-12
562 1 -0.019490625 -0.00125 0.005315625 7.23630538252e-08
563 1 -0.019490625 -0.00125 0.006496875 9.43068707871e-08
564 1 -0.019490625 -0.00125 0.007678125 1.36459415274e-06
565 1 -0.019490625 -0.00125 0.008859375 1.06360837885e-07
566 1 -0.019490625 -0.00125 0.010040625 5.97966963995e-11
567 1 -0.019490625 -0.00125 0.011221875 5.61682510303e-12
568 1 -0.019490625 -0.00125 0.012403125 3.73952436218e-11
569 1 -0.019490625 -0.00125 0.013584375 4.22769822265e-19
570 1 -0.019490625 -0.00125 0.014765625 1.00996158787e-17
571 1 -0.019490625 -0.00125 0.015946875 5.41723043651e-16
572 1 -0.019490625 -0.00125 0.017128125 2.63070149919e-16
573 1 -0.019490625 -0.00125 0.018309375 4.215563556e-17
574 1 -0.019490625 -0.00125 0.019490625 7.01295339806e-36
575 1 -0.019490625 -0.00125 0.020671875 4.6663222172e-35
576 1 -0.019490625 -0.00125 0.021853125 1.38391029236e-45
577 1 -0.019490625 -0.00125 0.023034375 2.83198057813e-79
578 1 -0.019490625 -0.00125 0.024215625 1.73058917522e-123
579 1 -0.019490625 -0.00125 0.025396875 0.0
580 1 -0.019490625 -0.00125 0.026578125 0.0
581 1 -0.019490625 -0.00125 0.027759375 1.11092368476e-149
582 1 -0.019490625 -0.00125 0.028940625 0.0
583 1 -0.019490625 -0.00125 0.030121875 0.0
584 1 -0.019490625 -0.00125 0.031303125 0.0