ITEM: TIMESTEP
0
ITEM: NUMBER OF ATOMS
3080
ITEM: BOX BOUNDS ss ss ss
-3.7007399999999996e-02 3.7007399999999996e-02
-2.0002499999999999e-03 2.5000000000000004e-07
-3.7007399999999996e-02 3.7007399999999996e-02
ITEM: ATOMS id type x y z c_1
0 1 -0.037209375 -0.00125 -0.000590625 0.000313358566238
1 1 -0.036028125 -0.00125 -0.007678125 8.18602262762e-30
2 1 -0.036028125 -0.00125 -0.006496875 1.19632770195e-39
3 1 -0.036028125 -0.00125 -0.005315625 3.63002636305e-76
4 1 -0.036028125 -0.00125 -0.004134375 8.68185300953e-48
5 1 -0.036028125 -0.00125 -0.002953125 1.17423263595e-12
6 1 -0.036028125 -0.00125 -0.001771875 1.1896248747e-09
7 1 -0.036028125 -0.00125 -0.000590625 3.64310317468e-07
8 1 -0.036028125 -0.00125 0.000590625 0.000909695823515
9 1 -0.036028125 -0.00125 0.001771875 0.0301742231459
10 1 -0.036028125 -0.00125 0.002953125 1.37243253004e-06
11 1 -0.036028125 -0.00125 0.004134375 2.19301591788e-18
12 1 -0.036028125 -0.00125 0.005315625 9.34215176574e-29
13 1 -0.036028125 -0.00125 0.006496875 1.04485423795e-14
14 1 -0.036028125 -0.00125 0.007678125 4.67665863517e-08
15 1 -0.034846875 -0.00125 -0.011221875 1.38094182619e-13
16 1 -0.034846875 -0.00125 -0.010040625 3.55412446783e-20
17 1 -0.034846875 -0.00125 -0.008859375 4.58471956951e-19
18 1 -0.034846875 -0.00125 -0.007678125 8.31574851932e-40
19 1 -0.034846875 -0.00125 -0.006496875 3.13806067489e-74
20 1 -0.034846875 -0.00125 -0.005315625 3.4513730837e-92
21 1 -0.034846875 -0.00125 -0.004134375 2.14494475025e-43
22 1 -0.034846875 -0.00125 -0.002953125 3.32128625921e-20
23 1 -0.034846875 -0.00125 -0.001771875 4.84920780017e-11
24 1 -0.034846875 -0.00125 -0.000590625 2.26344370988e-07
25 1 -0.034846875 -0.00125 0.000590625 0.000537132308534
26 1 -0.034846875 -0.00125 0.001771875 0.00152883073609
27 1 -0.034846875 -0.00125 0.002953125 2.11837999719e-06
28 1 -0.034846875 -0.00125 0.004134375 2.69149955405e-23
29 1 -0.034846875 -0.00125 0.005315625 1.16420991171e-43
30 1 -0.034846875 -0.00125 0.006496875 7.61228472371e-33
31 1 -0.034846875 -0.00125 0.007678125 2.07595612745e-06
32 1 -0.034846875 -0.00125 0.008859375 0.0287075564959
33 1 -0.034846875 -0.00125 0.010040625 0.000537653293197
34 1 -0.034846875 -0.00125 0.011221875 0.00597332029827
35 1 -0.033665625 -0.00125 -0.013584375 1.78190690591e-19
36 1 -0.033665625 -0.00125 -0.012403125 2.19542103924e-06
37 1 -0.033665625 -0.00125 -0.011221875 2.94879304887e-11
38 1 -0.033665625 -0.00125 -0.010040625 1.6849352385e-13
39 1 -0.033665625 -0.00125 -0.008859375 1.54428265485e-16
40 1 -0.033665625 -0.00125 -0.007678125 1.249200657e-39
41 1 -0.033665625 -0.00125 -0.006496875 1.57032916365e-60
42 1 -0.033665625 -0.00125 -0.005315625 1.38004760119e-92
43 1 -0.033665625 -0.00125 -0.004134375 1.64265641597e-33
44 1 -0.033665625 -0.00125 -0.002953125 7.02784401132e-15
45 1 -0.033665625 -0.00125 -0.001771875 2.30963072331e-09
46 1 -0.033665625 -0.00125 -0.000590625 1.04648521243e-06
47 1 -0.033665625 -0.00125 0.000590625 0.000306147788378
48 1 -0.033665625 -0.00125 0.001771875 0.00250905653867
49 1 -0.033665625 -0.00125 0.002953125 2.9273531032e-05
50 1 -0.033665625 -0.00125 0.004134375 4.5021693726e-16
51 1 -0.033665625 -0.00125 0.005315625 7.54182676349e-17
52 1 -0.033665625 -0.00125 0.006496875 8.11108894974e-16
53 1 -0.033665625 -0.00125 0.007678125 0.000215595568163
54 1 -0.033665625 -0.00125 0.008859375 0.00793532330791
55 1 -0.033665625 -0.00125 0.010040625 0.00185577839398
56 1 -0.033665625 -0.00125 0.011221875 0.0216237953035
57 1 -0.033665625 -0.00125 0.012403125 0.181222186507
58 1 -0.033665625 -0.00125 0.013584375 0.000572512660638
59 1 -0.032484375 -0.00125 -0.018309375 6.25427154646e-16
60 1 -0.032484375 -0.00125 -0.017128125 3.26159050665e-13
61 1 -0.032484375 -0.00125 -0.015946875 5.74379574532e-09
62 1 -0.032484375 -0.00125 -0.014765625 8.45742940018e-12
63 1 -0.032484375 -0.00125 -0.013584375 1.13020570181e-13
64 1 -0.032484375 -0.00125 -0.012403125 1.80749603877e-07
65 1 -0.032484375 -0.00125 -0.011221875 6.86010272607e-09
66 1 -0.032484375 -0.00125 -0.010040625 2.50775166497e-12
67 1 -0.032484375 -0.00125 -0.008859375 2.86818090242e-14
68 1 -0.032484375 -0.00125 -0.007678125 1.18323658515e-15
69 1 -0.032484375 -0.00125 -0.006496875 3.5704010855e-45
70 1 -0.032484375 -0.00125 -0.005315625 1.56728728542e-45
71 1 -0.032484375 -0.00125 -0.004134375 3.3290495798e-27
72 1 -0.032484375 -0.00125 -0.002953125 4.094101624e-12
73 1 -0.032484375 -0.00125 -0.001771875 5.14422815444e-07
74 1 -0.032484375 -0.00125 -0.000590625 3.04939789777e-07
75 1 -0.032484375 -0.00125 0.000590625 2.34585244733e-05
76 1 -0.032484375 -0.00125 0.001771875 2.61736186055e-05
77 1 -0.032484375 -0.00125 0.002953125 6.89953085331e-06
78 1 -0.032484375 -0.00125 0.004134375 1.62766626624e-15
79 1 -0.032484375 -0.00125 0.005315625 2.35841847799e-14
80 1 -0.032484375 -0.00125 0.006496875 2.25478287408e-14
81 1 -0.032484375 -0.00125 0.007678125 2.48244715908e-05
82 1 -0.032484375 -0.00125 0.008859375 0.00274032952443
83 1 -0.032484375 -0.00125 0.010040625 0.00241455897147
84 1 -0.032484375 -0.00125 0.011221875 0.051953467802
85 1 -0.032484375 -0.00125 0.012403125 0.058808557331
86 1 -0.032484375 -0.00125 0.013584375 1.36455545906e-06
87 1 -0.032484375 -0.00125 0.014765625 0.000312124590778
88 1 -0.032484375 -0.00125 0.015946875 0.00253332002986
89 1 -0.032484375 -0.00125 0.017128125 0.00491288058885
90 1 -0.032484375 -0.00125 0.018309375 0.00110405217482
91 1 -0.031303125 -0.00125 -0.019490625 9.01790473012e-34
92 1 -0.031303125 -0.00125 -0.018309375 8.18283820945e-22
93 1 -0.031303125 -0.00125 -0.017128125 6.78111686182e-14
94 1 -0.031303125 -0.00125 -0.015946875 3.92291471651e-12
95 1 -0.031303125 -0.00125 -0.014765625 1.77715456061e-08
96 1 -0.031303125 -0.00125 -0.013584375 1.27976237397e-09
97 1 -0.031303125 -0.00125 -0.012403125 6.05491967942e-09
98 1 -0.031303125 -0.00125 -0.011221875 3.69014820748e-08
99 1 -0.031303125 -0.00125 -0.010040625 2.24110300997e-09
100 1 -0.031303125 -0.00125 -0.008859375 9.60967283448e-13
101 1 -0.031303125 -0.00125 -0.007678125 1.0214829521e-15
102 1 -0.031303125 -0.00125 -0.006496875 1.698974898e-19
103 1 -0.031303125 -0.00125 -0.005315625 3.72601567616e-19
104 1 -0.031303125 -0.00125 -0.004134375 3.20753397459e-12
105 1 -0.031303125 -0.00125 -0.002953125 2.65264336144e-09
106 1 -0.031303125 -0.00125 -0.001771875 1.75342757068e-06
107 1 -0.031303125 -0.00125 -0.000590625 5.01906342315e-07
108 1 -0.031303125 -0.00125 0.000590625 1.14471197041e-06
109 1 -0.031303125 -0.00125 0.001771875 9.11018963011e-07
110 1 -0.031303125 -0.00125 0.002953125 4.40751956999e-07
111 1 -0.031303125 -0.00125 0.004134375 5.38108185889e-10
112 1 -0.031303125 -0.00125 0.005315625 1.22807003707e-09
113 1 -0.031303125 -0.00125 0.006496875 3.35019638096e-10
114 1 -0.031303125 -0.00125 0.007678125 3.5220857552e-06
115 1 -0.031303125 -0.00125 0.008859375 2.5899595485e-05
116 1 -0.031303125 -0.00125 0.010040625 6.82194226341e-05
117 1 -0.031303125 -0.00125 0.011221875 0.00156672620827
118 1 -0.031303125 -0.00125 0.012403125 0.00482346133148
119 1 -0.031303125 -0.00125 0.013584375 3.49664540486e-05
120 1 -0.031303125 -0.00125 0.014765625 0.000319329589182
121 1 -0.031303125 -0.00125 0.015946875 0.0022366850897
122 1 -0.031303125 -0.00125 0.017128125 0.0019583743025
123 1 -0.031303125 -0.00125 0.018309375 0.000421408379019
124 1 -0.031303125 -0.00125 0.019490625 9.21800947382e-06
125 1 -0.030121875 -0.00125 -0.020671875 2.89552532038e-84
126 1 -0.030121875 -0.00125 -0.019490625 1.2960101266e-41
127 1 -0.030121875 -0.00125 -0.018309375 5.4994060078e-20
128 1 -0.030121875 -0.00125 -0.017128125 7.24037072608e-10
129 1 -0.030121875 -0.00125 -0.015946875 7.93601888128e-11
130 1 -0.030121875 -0.00125 -0.014765625 5.46510853802e-07
131 1 -0.030121875 -0.00125 -0.013584375 2.93566615213e-05
132 1 -0.030121875 -0.00125 -0.012403125 4.11607341629e-06
133 1 -0.030121875 -0.00125 -0.011221875 2.99374474185e-06
134 1 -0.030121875 -0.00125 -0.010040625 3.28884320763e-11
135 1 -0.030121875 -0.00125 -0.008859375 5.70514326779e-14
136 1 -0.030121875 -0.00125 -0.007678125 1.93682443502e-14
137 1 -0.030121875 -0.00125 -0.006496875 1.54180368719e-16
138 1 -0.030121875 -0.00125 -0.005315625 3.25968194245e-11
139 1 -0.030121875 -0.00125 -0.004134375 1.34514299657e-10
140 1 -0.030121875 -0.00125 -0.002953125 8.5654758334e-09
141 1 -0.030121875 -0.00125 -0.001771875 1.62997842521e-06
142 1 -0.030121875 -0.00125 -0.000590625 3.2068171965e-09
143 1 -0.030121875 -0.00125 0.000590625 8.44089512644e-08
144 1 -0.030121875 -0.00125 0.001771875 9.17779139269e-06
145 1 -0.030121875 -0.00125 0.002953125 2.34965256446e-08
146 1 -0.030121875 -0.00125 0.004134375 4.90363842603e-10
147 1 -0.030121875 -0.00125 0.005315625 1.73089732933e-07
148 1 -0.030121875 -0.00125 0.006496875 5.10653320149e-09
149 1 -0.030121875 -0.00125 0.007678125 5.8480549406e-07
150 1 -0.030121875 -0.00125 0.008859375 2.20145473801e-08
151 1 -0.030121875 -0.00125 0.010040625 2.6909514834e-06
152 1 -0.030121875 -0.00125 0.011221875 1.90906738794e-05
153 1 -0.030121875 -0.00125 0.012403125 0.000309681366637
154 1 -0.030121875 -0.00125 0.013584375 1.88980074272e-05
155 1 -0.030121875 -0.00125 0.014765625 8.78889689796e-05
156 1 -0.030121875 -0.00125 0.015946875 0.000180420274364
157 1 -0.030121875 -0.00125 0.017128125 0.00140116343013
158 1 -0.030121875 -0.00125 0.018309375 0.000410801613128
159 1 -0.030121875 -0.00125 0.019490625 4.63212466683e-05
160 1 -0.030121875 -0.00125 0.020671875 0.000907294506073
161 1 -0.028940625 -0.00125 -0.021853125 6.72897754702e-40
162 1 -0.028940625 -0.00125 -0.020671875 1.46720250871e-46
163 1 -0.028940625 -0.00125 -0.019490625 4.10672010002e-25
164 1 -0.028940625 -0.00125 -0.018309375 3.8578929122e-16
165 1 -0.028940625 -0.00125 -0.017128125 6.46493973538e-09
166 1 -0.028940625 -0.00125 -0.015946875 9.28934465412e-07
167 1 -0.028940625 -0.00125 -0.014765625 1.41106989903e-05
168 1 -0.028940625 -0.00125 -0.013584375 6.08993781484e-06
169 1 -0.028940625 -0.00125 -0.012403125 8.26317777224e-07
170 1 -0.028940625 -0.00125 -0.011221875 1.67689563065e-07
171 1 -0.028940625 -0.00125 -0.010040625 6.83296860322e-11
172 1 -0.028940625 -0.00125 -0.008859375 1.25372892084e-11
173 1 -0.028940625 -0.00125 -0.007678125 2.09529613257e-10
174 1 -0.028940625 -0.00125 -0.006496875 1.06175708774e-07
175 1 -0.028940625 -0.00125 -0.005315625 2.98840370709e-09
176 1 -0.028940625 -0.00125 -0.004134375 1.28774608792e-08
177 1 -0.028940625 -0.00125 -0.002953125 2.50523328444e-08
178 1 -0.028940625 -0.00125 -0.001771875 5.59916924001e-09
179 1 -0.028940625 -0.00125 -0.000590625 1.03504565606e-06
180 1 -0.028940625 -0.00125 0.000590625 1.61679387572e-10
181 1 -0.028940625 -0.00125 0.001771875 2.65885702172e-09
182 1 -0.028940625 -0.00125 0.002953125 2.42047966096e-07
183 1 -0.028940625 -0.00125 0.004134375 3.21068844096e-07
184 1 -0.028940625 -0.00125 0.005315625 2.24030267589e-07
185 1 -0.028940625 -0.00125 0.006496875 9.7595789712e-09
186 1 -0.028940625 -0.00125 0.007678125 5.20174811274e-11
187 1 -0.028940625 -0.00125 0.008859375 7.40252911046e-13
188 1 -0.028940625 -0.00125 0.010040625 8.24391038345e-12
189 1 -0.028940625 -0.00125 0.011221875 4.34977805363e-08
190 1 -0.028940625 -0.00125 0.012403125 1.51945513813e-08
191 1 -0.028940625 -0.00125 0.013584375 2.16456989016e-11
192 1 -0.028940625 -0.00125 0.014765625 1.29725913508e-07
193 1 -0.028940625 -0.00125 0.015946875 0.00038423025602
194 1 -0.028940625 -0.00125 0.017128125 0.000559952590592
195 1 -0.028940625 -0.00125 0.018309375 0.000610417157046
196 1 -0.028940625 -0.00125 0.019490625 0.00125154987152
197 1 -0.028940625 -0.00125 0.020671875 0.00874859022673
198 1 -0.028940625 -0.00125 0.021853125 0.0483240723595
199 1 -0.027759375 -0.00125 -0.024215625 1.96482836116e-118
200 1 -0.027759375 -0.00125 -0.023034375 1.74164936052e-104
201 1 -0.027759375 -0.00125 -0.021853125 2.92838478199e-24
202 1 -0.027759375 -0.00125 -0.020671875 3.65831018526e-50
203 1 -0.027759375 -0.00125 -0.019490625 2.15675641895e-20
204 1 -0.027759375 -0.00125 -0.018309375 3.85952667388e-12
205 1 -0.027759375 -0.00125 -0.017128125 5.94107793532e-06
206 1 -0.027759375 -0.00125 -0.015946875 0.00138845791086
207 1 -0.027759375 -0.00125 -0.014765625 0.000925525738654
208 1 -0.027759375 -0.00125 -0.013584375 0.000244665525703
209 1 -0.027759375 -0.00125 -0.012403125 1.60290214177e-05
210 1 -0.027759375 -0.00125 -0.011221875 8.01234469338e-06
211 1 -0.027759375 -0.00125 -0.010040625 8.63599467341e-09
212 1 -0.027759375 -0.00125 -0.008859375 6.05174826988e-11
213 1 -0.027759375 -0.00125 -0.007678125 8.22131680021e-09
214 1 -0.027759375 -0.00125 -0.006496875 9.86083482114e-07
215 1 -0.027759375 -0.00125 -0.005315625 3.21312610637e-07
216 1 -0.027759375 -0.00125 -0.004134375 1.24012646849e-06
217 1 -0.027759375 -0.00125 -0.002953125 2.53952784267e-05
218 1 -0.027759375 -0.00125 -0.001771875 5.60442936927e-06
219 1 -0.027759375 -0.00125 -0.000590625 0.00051219412803
220 1 -0.027759375 -0.00125 0.000590625 4.53361353051e-05
221 1 -0.027759375 -0.00125 0.001771875 8.30096691789e-06
222 1 -0.027759375 -0.00125 0.002953125 0.000155377743058
223 1 -0.027759375 -0.00125 0.004134375 2.86764181171e-05
224 1 -0.027759375 -0.00125 0.005315625 6.67058835739e-05
225 1 -0.027759375 -0.00125 0.006496875 3.14434629525e-07
226 1 -0.027759375 -0.00125 0.007678125 1.00215176418e-06
227 1 -0.027759375 -0.00125 0.008859375 2.30513991722e-06
228 1 -0.027759375 -0.00125 0.010040625 1.87185750897e-08
229 1 -0.027759375 -0.00125 0.011221875 2.86111077302e-12
230 1 -0.027759375 -0.00125 0.012403125 1.32565792004e-10
231 1 -0.027759375 -0.00125 0.013584375 2.24347619226e-15
232 1 -0.027759375 -0.00125 0.014765625 2.82966622282e-10
233 1 -0.027759375 -0.00125 0.015946875 8.27852792476e-06
234 1 -0.027759375 -0.00125 0.017128125 7.03911857317e-05
235 1 -0.027759375 -0.00125 0.018309375 0.00102043905837
236 1 -0.027759375 -0.00125 0.019490625 0.000922246963068
237 1 -0.027759375 -0.00125 0.020671875 0.00376880956001
238 1 -0.027759375 -0.00125 0.021853125 0.0820827818893
239 1 -0.027759375 -0.00125 0.023034375 0.00306538888648
240 1 -0.027759375 -0.00125 0.024215625 2.21488295888e-11
241 1 -0.026578125 -0.00125 -0.026578125 6.6217674703e-118
242 1 -0.026578125 -0.00125 -0.025396875 3.1132222269e-125
243 1 -0.026578125 -0.00125 -0.024215625 1.8194567348e-131
244 1 -0.026578125 -0.00125 -0.023034375 1.96258733525e-107
245 1 -0.026578125 -0.00125 -0.021853125 2.63603169748e-58
246 1 -0.026578125 -0.00125 -0.020671875 5.12460282044e-24
247 1 -0.026578125 -0.00125 -0.019490625 2.91297887548e-10
248 1 -0.026578125 -0.00125 -0.018309375 3.99874668191e-07
249 1 -0.026578125 -0.00125 -0.017128125 4.39762439131e-05
250 1 -0.026578125 -0.00125 -0.015946875 0.000929666030635
251 1 -0.026578125 -0.00125 -0.014765625 0.000436984756565
252 1 -0.026578125 -0.00125 -0.013584375 0.000555055792395
253 1 -0.026578125 -0.00125 -0.012403125 9.46949536415e-06
254 1 -0.026578125 -0.00125 -0.011221875 1.45627651266e-05
255 1 -0.026578125 -0.00125 -0.010040625 8.25091290597e-09
256 1 -0.026578125 -0.00125 -0.008859375 2.654459782e-08
257 1 -0.026578125 -0.00125 -0.007678125 3.80846606311e-07
258 1 -0.026578125 -0.00125 -0.006496875 1.35108182489e-05
259 1 -0.026578125 -0.00125 -0.005315625 0.000772529904244
260 1 -0.026578125 -0.00125 -0.004134375 0.00567925289951
261 1 -0.026578125 -0.00125 -0.002953125 0.00233730973182
262 1 -0.026578125 -0.00125 -0.001771875 0.00178822915048
263 1 -0.026578125 -0.00125 -0.000590625 0.00261066441845
264 1 -0.026578125 -0.00125 0.000590625 0.00285381915915
265 1 -0.026578125 -0.00125 0.001771875 0.00265091670756
266 1 -0.026578125 -0.00125 0.002953125 0.0111513636353
267 1 -0.026578125 -0.00125 0.004134375 0.00547344473424
268 1 -0.026578125 -0.00125 0.005315625 0.00397189908777
269 1 -0.026578125 -0.00125 0.006496875 5.17728259654e-05
270 1 -0.026578125 -0.00125 0.007678125 7.91283820635e-05
271 1 -0.026578125 -0.00125 0.008859375 5.24841403651e-06
272 1 -0.026578125 -0.00125 0.010040625 1.60642174277e-06
273 1 -0.026578125 -0.00125 0.011221875 1.11723778491e-08
274 1 -0.026578125 -0.00125 0.012403125 7.23349985968e-10
275 1 -0.026578125 -0.00125 0.013584375 1.46473944997e-12
276 1 -0.026578125 -0.00125 0.014765625 1.02450075256e-10
277 1 -0.026578125 -0.00125 0.015946875 6.13202693796e-08
278 1 -0.026578125 -0.00125 0.017128125 1.40176875031e-05
279 1 -0.026578125 -0.00125 0.018309375 0.00416220190269
280 1 -0.026578125 -0.00125 0.019490625 0.0042131677206
281 1 -0.026578125 -0.00125 0.020671875 0.0171975061909
282 1 -0.026578125 -0.00125 0.021853125 0.00801510898954
283 1 -0.026578125 -0.00125 0.023034375 1.09937912055e-05
284 1 -0.026578125 -0.00125 0.024215625 2.14857825414e-08
285 1 -0.026578125 -0.00125 0.025396875 2.83696600411e-11
286 1 -0.026578125 -0.00125 0.026578125 4.21200819174e-10
287 1 -0.025396875 -0.00125 -0.026578125 1.39001088562e-165
288 1 -0.025396875 -0.00125 -0.025396875 5.46771481701e-170
289 1 -0.025396875 -0.00125 -0.024215625 2.3194154364e-112
290 1 -0.025396875 -0.00125 -0.023034375 5.28880899624e-134
291 1 -0.025396875 -0.00125 -0.021853125 1.4385248043e-44
292 1 -0.025396875 -0.00125 -0.020671875 2.25173040702e-14
293 1 -0.025396875 -0.00125 -0.019490625 2.35576469448e-07
294 1 -0.025396875 -0.00125 -0.018309375 0.00018209397077
295 1 -0.025396875 -0.00125 -0.017128125 0.00289459132848
296 1 -0.025396875 -0.00125 -0.015946875 0.00314697308964
297 1 -0.025396875 -0.00125 -0.014765625 0.010480844077
298 1 -0.025396875 -0.00125 -0.013584375 0.00632578094382
299 1 -0.025396875 -0.00125 -0.012403125 0.000834890783161
300 1 -0.025396875 -0.00125 -0.011221875 0.000502136038433
301 1 -0.025396875 -0.00125 -0.010040625 2.74103295203e-05
302 1 -0.025396875 -0.00125 -0.008859375 2.81070683667e-06
303 1 -0.025396875 -0.00125 -0.007678125 1.7910893829e-07
304 1 -0.025396875 -0.00125 -0.006496875 0.000145015139033
305 1 -0.025396875 -0.00125 -0.005315625 0.000814226721379
306 1 -0.025396875 -0.00125 -0.004134375 0.00272039928505
307 1 -0.025396875 -0.00125 -0.002953125 0.000795822271735
308 1 -0.025396875 -0.00125 -0.001771875 8.7866734998e-05
309 1 -0.025396875 -0.00125 -0.000590625 0.00186034445005
310 1 -0.025396875 -0.00125 0.000590625 0.00201054930253
311 1 -0.025396875 -0.00125 0.001771875 0.00433570841847
312 1 -0.025396875 -0.00125 0.002953125 0.00398249569676
313 1 -0.025396875 -0.00125 0.004134375 0.012206724137
314 1 -0.025396875 -0.00125 0.005315625 0.0126669482059
315 1 -0.025396875 -0.00125 0.006496875 0.00643882086267
316 1 -0.025396875 -0.00125 0.007678125 0.00460394267208
317 1 -0.025396875 -0.00125 0.008859375 0.000564582442599
318 1 -0.025396875 -0.00125 0.010040625 3.86587315807e-05
319 1 -0.025396875 -0.00125 0.011221875 7.86505117521e-07
320 1 -0.025396875 -0.00125 0.012403125 5.28328092446e-11
321 1 -0.025396875 -0.00125 0.013584375 7.39854350397e-11
322 1 -0.025396875 -0.00125 0.014765625 3.48730693489e-15
323 1 -0.025396875 -0.00125 0.015946875 3.74994834382e-07
324 1 -0.025396875 -0.00125 0.017128125 1.88743392125e-05
325 1 -0.025396875 -0.00125 0.018309375 0.00236685125221
326 1 -0.025396875 -0.00125 0.019490625 0.00873309001064
327 1 -0.025396875 -0.00125 0.020671875 0.0211111586594
328 1 -0.025396875 -0.00125 0.021853125 0.0243456585129
329 1 -0.025396875 -0.00125 0.023034375 0.000720998515187
330 1 -0.025396875 -0.00125 0.024215625 9.0722318176e-06
331 1 -0.025396875 -0.00125 0.025396875 2.49057186472e-06
332 1 -0.025396875 -0.00125 0.026578125 7.48358375329e-19
333 1 -0.024215625 -0.00125 -0.027759375 1.05782469062e-50
334 1 -0.024215625 -0.00125 -0.026578125 6.2593501794e-80
335 1 -0.024215625 -0.00125 -0.025396875 1.09458933498e-89
336 1 -0.024215625 -0.00125 -0.024215625 3.97040407125e-50
337 1 -0.024215625 -0.00125 -0.023034375 1.55024839214e-35
338 1 -0.024215625 -0.00125 -0.021853125 4.52479247939e-21
339 1 -0.024215625 -0.00125 -0.020671875 1.49935303454e-10
340 1 -0.024215625 -0.00125 -0.019490625 3.58510715535e-05
341 1 -0.024215625 -0.00125 -0.018309375 0.000259122413867
342 1 -0.024215625 -0.00125 -0.017128125 0.0016942202156
343 1 -0.024215625 -0.00125 -0.015946875 0.015023192983
344 1 -0.024215625 -0.00125 -0.014765625 0.00897344861236
345 1 -0.024215625 -0.00125 -0.013584375 0.00178872835029
346 1 -0.024215625 -0.00125 -0.012403125 0.000491894779418
347 1 -0.024215625 -0.00125 -0.011221875 0.000435469079863
348 1 -0.024215625 -0.00125 -0.010040625 6.92074545037e-05
349 1 -0.024215625 -0.00125 -0.008859375 0.000167441104554
350 1 -0.024215625 -0.00125 -0.007678125 9.20703775216e-07
351 1 -0.024215625 -0.00125 -0.006496875 1.59532120032e-05
352 1 -0.024215625 -0.00125 -0.005315625 0.00085572988228
353 1 -0.024215625 -0.00125 -0.004134375 0.000116724705259
354 1 -0.024215625 -0.00125 -0.002953125 5.57250637917e-05
355 1 -0.024215625 -0.00125 -0.001771875 0.000175983140136
356 1 -0.024215625 -0.00125 -0.000590625 0.00211957363759
357 1 -0.024215625 -0.00125 0.000590625 0.00979144184492
358 1 -0.024215625 -0.00125 0.001771875 0.00372026347083
359 1 -0.024215625 -0.00125 0.002953125 0.00214263234902
360 1 -0.024215625 -0.00125 0.004134375 0.00380750319121
361 1 -0.024215625 -0.00125 0.005315625 0.00454613348359
362 1 -0.024215625 -0.00125 0.006496875 0.00319212643568
363 1 -0.024215625 -0.00125 0.007678125 0.0034254521781
364 1 -0.024215625 -0.00125 0.008859375 0.00285391098834
365 1 -0.024215625 -0.00125 0.010040625 0.00173123787531
366 1 -0.024215625 -0.00125 0.011221875 2.61820442826e-05
367 1 -0.024215625 -0.00125 0.012403125 3.06149473618e-06
368 1 -0.024215625 -0.00125 0.013584375 1.51862201106e-06
369 1 -0.024215625 -0.00125 0.014765625 3.48754782432e-06
370 1 -0.024215625 -0.00125 0.015946875 3.39967529181e-06
371 1 -0.024215625 -0.00125 0.017128125 0.000431083495213
372 1 -0.024215625 -0.00125 0.018309375 0.00675574388599
373 1 -0.024215625 -0.00125 0.019490625 0.0139058472654
374 1 -0.024215625 -0.00125 0.020671875 0.0337828394946
375 1 -0.024215625 -0.00125 0.021853125 0.0258544331732
376 1 -0.024215625 -0.00125 0.023034375 0.00292849191506
377 1 -0.024215625 -0.00125 0.024215625 5.38572662316e-05
378 1 -0.024215625 -0.00125 0.025396875 1.56179989105e-06
379 1 -0.024215625 -0.00125 0.026578125 2.60380497456e-08
380 1 -0.024215625 -0.00125 0.027759375 8.64196453863e-10
381 1 -0.023034375 -0.00125 -0.027759375 4.63308060699e-47
382 1 -0.023034375 -0.00125 -0.026578125 1.47261722835e-43
383 1 -0.023034375 -0.00125 -0.025396875 1.12166552093e-24
384 1 -0.023034375 -0.00125 -0.024215625 1.91946451193e-18
385 1 -0.023034375 -0.00125 -0.023034375 4.38389121384e-12
386 1 -0.023034375 -0.00125 -0.021853125 1.1794443441e-09
387 1 -0.023034375 -0.00125 -0.020671875 2.3587383783e-06
388 1 -0.023034375 -0.00125 -0.019490625 0.000928946499181
389 1 -0.023034375 -0.00125 -0.018309375 0.00209893654682
390 1 -0.023034375 -0.00125 -0.017128125 0.0044986357057
391 1 -0.023034375 -0.00125 -0.015946875 0.0196483946948
392 1 -0.023034375 -0.00125 -0.014765625 0.00867347685618
393 1 -0.023034375 -0.00125 -0.013584375 0.00471743222476
394 1 -0.023034375 -0.00125 -0.012403125 0.00183310930089
395 1 -0.023034375 -0.00125 -0.011221875 0.0016356481302
396 1 -0.023034375 -0.00125 -0.010040625 0.000253543070135
397 1 -0.023034375 -0.00125 -0.008859375 0.000653744494615
398 1 -0.023034375 -0.00125 -0.007678125 0.000186506861034
399 1 -0.023034375 -0.00125 -0.006496875 4.63338276853e-05
400 1 -0.023034375 -0.00125 -0.005315625 0.000225561430731
401 1 -0.023034375 -0.00125 -0.004134375 9.29671240874e-06
402 1 -0.023034375 -0.00125 -0.002953125 5.60232306953e-05
403 1 -0.023034375 -0.00125 -0.001771875 0.00197123916785
404 1 -0.023034375 -0.00125 -0.000590625 0.0102337000511
405 1 -0.023034375 -0.00125 0.000590625 0.0196482468618
406 1 -0.023034375 -0.00125 0.001771875 0.0161939140496
407 1 -0.023034375 -0.00125 0.002953125 0.0145848802234
408 1 -0.023034375 -0.00125 0.004134375 0.0129015201523
409 1 -0.023034375 -0.00125 0.005315625 0.00638348964088
410 1 -0.023034375 -0.00125 0.006496875 0.0191375789345
411 1 -0.023034375 -0.00125 0.007678125 0.01321251954
412 1 -0.023034375 -0.00125 0.008859375 0.00457597713086
413 1 -0.023034375 -0.00125 0.010040625 0.00108092619975
414 1 -0.023034375 -0.00125 0.011221875 4.95668466003e-05
415 1 -0.023034375 -0.00125 0.012403125 5.03772999808e-05
416 1 -0.023034375 -0.00125 0.013584375 1.10110482125e-05
417 1 -0.023034375 -0.00125 0.014765625 1.8375585525e-06
418 1 -0.023034375 -0.00125 0.015946875 0.000194219570636
419 1 -0.023034375 -0.00125 0.017128125 0.000704799223826
420 1 -0.023034375 -0.00125 0.018309375 0.014103882391
421 1 -0.023034375 -0.00125 0.019490625 0.0109679410241
422 1 -0.023034375 -0.00125 0.020671875 0.0419447154352
423 1 -0.023034375 -0.00125 0.021853125 0.0270128832902
424 1 -0.023034375 -0.00125 0.023034375 0.00792150518335
425 1 -0.023034375 -0.00125 0.024215625 0.000111878525031
426 1 -0.023034375 -0.00125 0.025396875 4.16218405209e-05
427 1 -0.023034375 -0.00125 0.026578125 1.83333797109e-06
428 1 -0.023034375 -0.00125 0.027759375 8.82347367437e-06
429 1 -0.021853125 -0.00125 -0.028940625 5.76006619956e-18
430 1 -0.021853125 -0.00125 -0.027759375 1.28047785492e-18
431 1 -0.021853125 -0.00125 -0.026578125 5.41719820095e-28
432 1 -0.021853125 -0.00125 -0.025396875 4.66839032978e-15
433 1 -0.021853125 -0.00125 -0.024215625 3.51465356039e-08
434 1 -0.021853125 -0.00125 -0.023034375 2.36574916916e-08
435 1 -0.021853125 -0.00125 -0.021853125 1.10416275192e-06
436 1 -0.021853125 -0.00125 -0.020671875 0.000230756981104
437 1 -0.021853125 -0.00125 -0.019490625 0.00276450696306
438 1 -0.021853125 -0.00125 -0.018309375 0.00570237584568
439 1 -0.021853125 -0.00125 -0.017128125 0.00837665537968
440 1 -0.021853125 -0.00125 -0.015946875 0.0206107559325
441 1 -0.021853125 -0.00125 -0.014765625 0.0211973325311
442 1 -0.021853125 -0.00125 -0.013584375 0.0163965105934
443 1 -0.021853125 -0.00125 -0.012403125 0.0169650905729
444 1 -0.021853125 -0.00125 -0.011221875 0.00488946411763
445 1 -0.021853125 -0.00125 -0.010040625 0.00144379520583
446 1 -0.021853125 -0.00125 -0.008859375 0.00110667502493
447 1 -0.021853125 -0.00125 -0.007678125 0.00138213291171
448 1 -0.021853125 -0.00125 -0.006496875 0.000415539940102
449 1 -0.021853125 -0.00125 -0.005315625 0.00222457926213
450 1 -0.021853125 -0.00125 -0.004134375 0.000880617533943
451 1 -0.021853125 -0.00125 -0.002953125 0.00108710389501
452 1 -0.021853125 -0.00125 -0.001771875 0.00187942429005
453 1 -0.021853125 -0.00125 -0.000590625 0.0195279984269
454 1 -0.021853125 -0.00125 0.000590625 0.0181874970022
455 1 -0.021853125 -0.00125 0.001771875 0.0184100146644
456 1 -0.021853125 -0.00125 0.002953125 0.0346292732755
457 1 -0.021853125 -0.00125 0.004134375 0.0393738866018
458 1 -0.021853125 -0.00125 0.005315625 0.0459678975903
459 1 -0.021853125 -0.00125 0.006496875 0.0320355946559
460 1 -0.021853125 -0.00125 0.007678125 0.0145884730393
461 1 -0.021853125 -0.00125 0.008859375 0.011217222703
462 1 -0.021853125 -0.00125 0.010040625 0.00329070420163
463 1 -0.021853125 -0.00125 0.011221875 0.00159873388753
464 1 -0.021853125 -0.00125 0.012403125 0.000685728649848
465 1 -0.021853125 -0.00125 0.013584375 0.000405176401493
466 1 -0.021853125 -0.00125 0.014765625 0.000754145493551
467 1 -0.021853125 -0.00125 0.015946875 0.00177491065056
468 1 -0.021853125 -0.00125 0.017128125 0.0109486297696
469 1 -0.021853125 -0.00125 0.018309375 0.0362779264927
470 1 -0.021853125 -0.00125 0.019490625 0.027394504124
471 1 -0.021853125 -0.00125 0.020671875 0.0520194965823
472 1 -0.021853125 -0.00125 0.021853125 0.0279618074231
473 1 -0.021853125 -0.00125 0.023034375 0.00717236168391
474 1 -0.021853125 -0.00125 0.024215625 0.00179677051917
475 1 -0.021853125 -0.00125 0.025396875 0.000212992032975
476 1 -0.021853125 -0.00125 0.026578125 0.000100653205065
477 1 -0.021853125 -0.00125 0.027759375 0.000229697772769
478 1 -0.021853125 -0.00125 0.028940625 0.000369730852555
479 1 -0.020671875 -0.00125 -0.030121875 3.43080178379e-26
480 1 -0.020671875 -0.00125 -0.028940625 1.26530941859e-28
481 1 -0.020671875 -0.00125 -0.027759375 2.30593054112e-19
482 1 -0.020671875 -0.00125 -0.026578125 5.39658457165e-20
483 1 -0.020671875 -0.00125 -0.025396875 1.6340666244e-10
484 1 -0.020671875 -0.00125 -0.024215625 4.36371004235e-06
485 1 -0.020671875 -0.00125 -0.023034375 2.96055091575e-05
486 1 -0.020671875 -0.00125 -0.021853125 9.58007385378e-05
487 1 -0.020671875 -0.00125 -0.020671875 0.000999543663894
488 1 -0.020671875 -0.00125 -0.019490625 0.00502236842022
489 1 -0.020671875 -0.00125 -0.018309375 0.0116136122003
490 1 -0.020671875 -0.00125 -0.017128125 0.0221254748094
491 1 -0.020671875 -0.00125 -0.015946875 0.047159707878
492 1 -0.020671875 -0.00125 -0.014765625 0.0603361610302
493 1 -0.020671875 -0.00125 -0.013584375 0.0406277555648
494 1 -0.020671875 -0.00125 -0.012403125 0.0229605860411
495 1 -0.020671875 -0.00125 -0.011221875 0.0207053622795
496 1 -0.020671875 -0.00125 -0.010040625 0.0157558080405
497 1 -0.020671875 -0.00125 -0.008859375 0.00934443427811
498 1 -0.020671875 -0.00125 -0.007678125 0.00315481010333
499 1 -0.020671875 -0.00125 -0.006496875 0.00492253329503
500 1 -0.020671875 -0.00125 -0.005315625 0.00687681061524
501 1 -0.020671875 -0.00125 -0.004134375 0.00383255110602
502 1 -0.020671875 -0.00125 -0.002953125 0.00515519158562
503 1 -0.020671875 -0.00125 -0.001771875 0.00837344198756
504 1 -0.020671875 -0.00125 -0.000590625 0.028340159246
505 1 -0.020671875 -0.00125 0.000590625 0.0263870423635
506 1 -0.020671875 -0.00125 0.001771875 0.0244898418367
507 1 -0.020671875 -0.00125 0.002953125 0.0306445450504
508 1 -0.020671875 -0.00125 0.004134375 0.0458086977467
509 1 -0.020671875 -0.00125 0.005315625 0.0624129041012
510 1 -0.020671875 -0.00125 0.006496875 0.0386373331806
511 1 -0.020671875 -0.00125 0.007678125 0.0175748696117
512 1 -0.020671875 -0.00125 0.008859375 0.0115358065308
513 1 -0.020671875 -0.00125 0.010040625 0.0040652242754
514 1 -0.020671875 -0.00125 0.011221875 0.00259136511208