ITEM: TIMESTEP
0
ITEM: NUMBER OF ATOMS
3080
ITEM: BOX BOUNDS ss ss ss
-3.7007399999999996e-02 3.7007399999999996e-02
-2.0002499999999999e-03 2.5000000000000004e-07
-3.7007399999999996e-02 3.7007399999999996e-02
ITEM: ATOMS id type x y z c_1
0 1 -0.037209375 -0.00125 -0.000590625 1.0
1 1 -0.036028125 -0.00125 -0.007678125 2.97333274158e-19
2 1 -0.036028125 -0.00125 -0.006496875 6.60598604703e-46
3 1 -0.036028125 -0.00125 -0.005315625 1.04432082425e-90
4 1 -0.036028125 -0.00125 -0.004134375 1.36430724881e-51
5 1 -0.036028125 -0.00125 -0.002953125 1.2106283213e-11
6 1 -0.036028125 -0.00125 -0.001771875 6.6714606926e-09
7 1 -0.036028125 -0.00125 -0.000590625 1.15139558511e-18
8 1 -0.036028125 -0.00125 0.000590625 6.58888650833e-194
9 1 -0.036028125 -0.00125 0.001771875 4.20837373588e-102
10 1 -0.036028125 -0.00125 0.002953125 5.17412925495e-249
11 1 -0.036028125 -0.00125 0.004134375 5.36337235619e-217
12 1 -0.036028125 -0.00125 0.005315625 1.04095671043e-167
13 1 -0.036028125 -0.00125 0.006496875 4.44041099145e-77
14 1 -0.036028125 -0.00125 0.007678125 1.60865167469e-58
15 1 -0.034846875 -0.00125 -0.011221875 1.15580141481e-10
16 1 -0.034846875 -0.00125 -0.010040625 1.92635704184e-12
17 1 -0.034846875 -0.00125 -0.008859375 2.12872261681e-10
18 1 -0.034846875 -0.00125 -0.007678125 1.35646679515e-73
19 1 -0.034846875 -0.00125 -0.006496875 6.25188648771e-38
20 1 -0.034846875 -0.00125 -0.005315625 2.67954499792e-115
21 1 -0.034846875 -0.00125 -0.004134375 5.08321725361e-111
22 1 -0.034846875 -0.00125 -0.002953125 8.22165998132e-17
23 1 -0.034846875 -0.00125 -0.001771875 1.04728809259e-30
24 1 -0.034846875 -0.00125 -0.000590625 9.8653972649e-39
25 1 -0.034846875 -0.00125 0.000590625 2.10456584831e-176
26 1 -0.034846875 -0.00125 0.001771875 0.0
27 1 -0.034846875 -0.00125 0.002953125 0.0
28 1 -0.034846875 -0.00125 0.004134375 0.0
29 1 -0.034846875 -0.00125 0.005315625 2.06857967254e-232
30 1 -0.034846875 -0.00125 0.006496875 4.9231771007e-145
31 1 -0.034846875 -0.00125 0.007678125 7.0753199302e-116
32 1 -0.034846875 -0.00125 0.008859375 1.1232078859e-25
33 1 -0.034846875 -0.00125 0.010040625 8.56580491663e-48
34 1 -0.034846875 -0.00125 0.011221875 1.18926688065e-83
35 1 -0.033665625 -0.00125 -0.013584375 8.61029447454e-11
36 1 -0.033665625 -0.00125 -0.012403125 1.58188198204e-10
37 1 -0.033665625 -0.00125 -0.011221875 9.0945400439e-16
38 1 -0.033665625 -0.00125 -0.010040625 3.30771821809e-12
39 1 -0.033665625 -0.00125 -0.008859375 1.60178367297e-16
40 1 -0.033665625 -0.00125 -0.007678125 1.0161490437e-24
41 1 -0.033665625 -0.00125 -0.006496875 9.01056667185e-41
42 1 -0.033665625 -0.00125 -0.005315625 1.07422450718e-106
43 1 -0.033665625 -0.00125 -0.004134375 2.27259530987e-43
44 1 -0.033665625 -0.00125 -0.002953125 2.62105737181e-41
45 1 -0.033665625 -0.00125 -0.001771875 7.15133426873e-34
46 1 -0.033665625 -0.00125 -0.000590625 6.38878664224e-30
47 1 -0.033665625 -0.00125 0.000590625 2.38093184356e-107
48 1 -0.033665625 -0.00125 0.001771875 1.138009974e-281
49 1 -0.033665625 -0.00125 0.002953125 4.96582760137e-276
50 1 -0.033665625 -0.00125 0.004134375 0.0
51 1 -0.033665625 -0.00125 0.005315625 0.0
52 1 -0.033665625 -0.00125 0.006496875 1.17586291032e-118
53 1 -0.033665625 -0.00125 0.007678125 2.42885404796e-73
54 1 -0.033665625 -0.00125 0.008859375 2.39911846649e-28
55 1 -0.033665625 -0.00125 0.010040625 1.34745547743e-41
56 1 -0.033665625 -0.00125 0.011221875 1.22941664197e-62
57 1 -0.033665625 -0.00125 0.012403125 5.65906053281e-55
58 1 -0.033665625 -0.00125 0.013584375 0.0
59 1 -0.032484375 -0.00125 -0.018309375 7.39427831271e-09
60 1 -0.032484375 -0.00125 -0.017128125 1.08272534918e-10
61 1 -0.032484375 -0.00125 -0.015946875 4.45005400975e-06
62 1 -0.032484375 -0.00125 -0.014765625 1.12249860594e-08
63 1 -0.032484375 -0.00125 -0.013584375 2.65897576273e-12
64 1 -0.032484375 -0.00125 -0.012403125 7.0272430834e-12
65 1 -0.032484375 -0.00125 -0.011221875 5.00579631327e-10
66 1 -0.032484375 -0.00125 -0.010040625 2.74197723302e-13
67 1 -0.032484375 -0.00125 -0.008859375 1.03004343851e-12
68 1 -0.032484375 -0.00125 -0.007678125 1.07736901135e-09
69 1 -0.032484375 -0.00125 -0.006496875 2.19501780691e-22
70 1 -0.032484375 -0.00125 -0.005315625 1.22595468539e-15
71 1 -0.032484375 -0.00125 -0.004134375 2.68964183769e-19
72 1 -0.032484375 -0.00125 -0.002953125 7.74333836531e-27
73 1 -0.032484375 -0.00125 -0.001771875 4.66917657126e-17
74 1 -0.032484375 -0.00125 -0.000590625 3.73361702866e-19
75 1 -0.032484375 -0.00125 0.000590625 1.48780959752e-49
76 1 -0.032484375 -0.00125 0.001771875 1.66216029745e-14
77 1 -0.032484375 -0.00125 0.002953125 1.84587053303e-37
78 1 -0.032484375 -0.00125 0.004134375 1.0651103067e-26
79 1 -0.032484375 -0.00125 0.005315625 3.4093152693e-103
80 1 -0.032484375 -0.00125 0.006496875 2.33645269616e-41
81 1 -0.032484375 -0.00125 0.007678125 2.78370441523e-28
82 1 -0.032484375 -0.00125 0.008859375 3.79431649181e-26
83 1 -0.032484375 -0.00125 0.010040625 7.30778809292e-35
84 1 -0.032484375 -0.00125 0.011221875 6.45508497532e-58
85 1 -0.032484375 -0.00125 0.012403125 5.16844502226e-172
86 1 -0.032484375 -0.00125 0.013584375 0.0
87 1 -0.032484375 -0.00125 0.014765625 0.0
88 1 -0.032484375 -0.00125 0.015946875 2.5829223712e-213
89 1 -0.032484375 -0.00125 0.017128125 0.0
90 1 -0.032484375 -0.00125 0.018309375 0.0
91 1 -0.031303125 -0.00125 -0.019490625 2.27393973623e-15
92 1 -0.031303125 -0.00125 -0.018309375 2.7375097202e-08
93 1 -0.031303125 -0.00125 -0.017128125 6.0157530162e-07
94 1 -0.031303125 -0.00125 -0.015946875 6.96179759367e-10
95 1 -0.031303125 -0.00125 -0.014765625 3.92113129254e-12
96 1 -0.031303125 -0.00125 -0.013584375 6.236958426e-19
97 1 -0.031303125 -0.00125 -0.012403125 4.16828813395e-14
98 1 -0.031303125 -0.00125 -0.011221875 7.6118952233e-13
99 1 -0.031303125 -0.00125 -0.010040625 9.49264891897e-12
100 1 -0.031303125 -0.00125 -0.008859375 5.00376052359e-15
101 1 -0.031303125 -0.00125 -0.007678125 8.951385133e-11
102 1 -0.031303125 -0.00125 -0.006496875 1.16282748132e-09
103 1 -0.031303125 -0.00125 -0.005315625 9.54583786732e-10
104 1 -0.031303125 -0.00125 -0.004134375 5.61150219771e-12
105 1 -0.031303125 -0.00125 -0.002953125 8.65524433917e-05
106 1 -0.031303125 -0.00125 -0.001771875 1.5114305667e-05
107 1 -0.031303125 -0.00125 -0.000590625 3.1282546811e-11
108 1 -0.031303125 -0.00125 0.000590625 3.11364667484e-12
109 1 -0.031303125 -0.00125 0.001771875 5.05578837265e-08
110 1 -0.031303125 -0.00125 0.002953125 7.96405897368e-09
111 1 -0.031303125 -0.00125 0.004134375 6.21493398706e-08
112 1 -0.031303125 -0.00125 0.005315625 7.09041429565e-09
113 1 -0.031303125 -0.00125 0.006496875 2.74170506446e-10
114 1 -0.031303125 -0.00125 0.007678125 6.91917287813e-13
115 1 -0.031303125 -0.00125 0.008859375 6.58343910381e-33
116 1 -0.031303125 -0.00125 0.010040625 1.44137246742e-37
117 1 -0.031303125 -0.00125 0.011221875 7.43783974132e-48
118 1 -0.031303125 -0.00125 0.012403125 1.40584942334e-60
119 1 -0.031303125 -0.00125 0.013584375 0.0
120 1 -0.031303125 -0.00125 0.014765625 0.0
121 1 -0.031303125 -0.00125 0.015946875 0.0
122 1 -0.031303125 -0.00125 0.017128125 0.0
123 1 -0.031303125 -0.00125 0.018309375 0.0
124 1 -0.031303125 -0.00125 0.019490625 0.0
125 1 -0.030121875 -0.00125 -0.020671875 3.96666849502e-19
126 1 -0.030121875 -0.00125 -0.019490625 4.19254552845e-10
127 1 -0.030121875 -0.00125 -0.018309375 4.80938118989e-12
128 1 -0.030121875 -0.00125 -0.017128125 1.00063862432e-07
129 1 -0.030121875 -0.00125 -0.015946875 1.44880464143e-12
130 1 -0.030121875 -0.00125 -0.014765625 2.46956797553e-15
131 1 -0.030121875 -0.00125 -0.013584375 4.64058642167e-22
132 1 -0.030121875 -0.00125 -0.012403125 7.56509845728e-09
133 1 -0.030121875 -0.00125 -0.011221875 7.1228380897e-07
134 1 -0.030121875 -0.00125 -0.010040625 2.57753232011e-07
135 1 -0.030121875 -0.00125 -0.008859375 4.16502777251e-12
136 1 -0.030121875 -0.00125 -0.007678125 4.19812462536e-08
137 1 -0.030121875 -0.00125 -0.006496875 1.05847288252e-10
138 1 -0.030121875 -0.00125 -0.005315625 0.000119128586112
139 1 -0.030121875 -0.00125 -0.004134375 1.95626343663e-05
140 1 -0.030121875 -0.00125 -0.002953125 0.009642767309
141 1 -0.030121875 -0.00125 -0.001771875 0.00301810999316
142 1 -0.030121875 -0.00125 -0.000590625 1.83237701571e-07
143 1 -0.030121875 -0.00125 0.000590625 8.33189279272e-07
144 1 -0.030121875 -0.00125 0.001771875 0.00016415518909
145 1 -0.030121875 -0.00125 0.002953125 1.82526485841e-05
146 1 -0.030121875 -0.00125 0.004134375 3.23183690063e-05
147 1 -0.030121875 -0.00125 0.005315625 1.3772041003e-07
148 1 -0.030121875 -0.00125 0.006496875 1.29885865109e-09
149 1 -0.030121875 -0.00125 0.007678125 2.42674284439e-23
150 1 -0.030121875 -0.00125 0.008859375 2.76673390803e-30
151 1 -0.030121875 -0.00125 0.010040625 9.68418655272e-23
152 1 -0.030121875 -0.00125 0.011221875 1.97224974946e-65
153 1 -0.030121875 -0.00125 0.012403125 5.90873072477e-62
154 1 -0.030121875 -0.00125 0.013584375 4.49324775066e-98
155 1 -0.030121875 -0.00125 0.014765625 9.31627936461e-186
156 1 -0.030121875 -0.00125 0.015946875 0.0
157 1 -0.030121875 -0.00125 0.017128125 0.0
158 1 -0.030121875 -0.00125 0.018309375 0.0
159 1 -0.030121875 -0.00125 0.019490625 0.0
160 1 -0.030121875 -0.00125 0.020671875 0.0
161 1 -0.028940625 -0.00125 -0.021853125 0.0165841366702
162 1 -0.028940625 -0.00125 -0.020671875 4.28523923691e-05
163 1 -0.028940625 -0.00125 -0.019490625 6.60343494268e-08
164 1 -0.028940625 -0.00125 -0.018309375 4.37327918637e-14
165 1 -0.028940625 -0.00125 -0.017128125 1.61487536867e-15
166 1 -0.028940625 -0.00125 -0.015946875 1.11505890738e-11
167 1 -0.028940625 -0.00125 -0.014765625 1.79612041443e-11
168 1 -0.028940625 -0.00125 -0.013584375 1.22385101639e-13
169 1 -0.028940625 -0.00125 -0.012403125 3.55899113732e-11
170 1 -0.028940625 -0.00125 -0.011221875 3.20346697441e-08
171 1 -0.028940625 -0.00125 -0.010040625 3.49679970037e-05
172 1 -0.028940625 -0.00125 -0.008859375 0.000142970298719
173 1 -0.028940625 -0.00125 -0.007678125 0.000121545879188
174 1 -0.028940625 -0.00125 -0.006496875 0.00177871002872
175 1 -0.028940625 -0.00125 -0.005315625 0.00792058016252
176 1 -0.028940625 -0.00125 -0.004134375 0.0192455247342
177 1 -0.028940625 -0.00125 -0.002953125 0.0138812011884
178 1 -0.028940625 -0.00125 -0.001771875 0.00921597566234
179 1 -0.028940625 -0.00125 -0.000590625 0.00115550923507
180 1 -0.028940625 -0.00125 0.000590625 0.00365137321814
181 1 -0.028940625 -0.00125 0.001771875 0.00253460496044
182 1 -0.028940625 -0.00125 0.002953125 0.00348824642306
183 1 -0.028940625 -0.00125 0.004134375 2.9608426883e-12
184 1 -0.028940625 -0.00125 0.005315625 5.35872892095e-13
185 1 -0.028940625 -0.00125 0.006496875 4.45768057097e-18
186 1 -0.028940625 -0.00125 0.007678125 2.45124400285e-32
187 1 -0.028940625 -0.00125 0.008859375 1.3451487069e-23
188 1 -0.028940625 -0.00125 0.010040625 2.82838964085e-35
189 1 -0.028940625 -0.00125 0.011221875 3.2152400088e-53
190 1 -0.028940625 -0.00125 0.012403125 3.9247859137e-74
191 1 -0.028940625 -0.00125 0.013584375 7.25892153701e-55
192 1 -0.028940625 -0.00125 0.014765625 1.31419117014e-166
193 1 -0.028940625 -0.00125 0.015946875 1.85460957291e-217
194 1 -0.028940625 -0.00125 0.017128125 1.70714460791e-212
195 1 -0.028940625 -0.00125 0.018309375 3.42725111279e-231
196 1 -0.028940625 -0.00125 0.019490625 0.0
197 1 -0.028940625 -0.00125 0.020671875 0.0
198 1 -0.028940625 -0.00125 0.021853125 0.0
199 1 -0.027759375 -0.00125 -0.024215625 0.00450913606265
200 1 -0.027759375 -0.00125 -0.023034375 0.0497064733715
201 1 -0.027759375 -0.00125 -0.021853125 0.239781156998
202 1 -0.027759375 -0.00125 -0.020671875 0.00985537146095
203 1 -0.027759375 -0.00125 -0.019490625 0.00010792603809
204 1 -0.027759375 -0.00125 -0.018309375 2.58546728531e-06
205 1 -0.027759375 -0.00125 -0.017128125 6.86169519002e-09
206 1 -0.027759375 -0.00125 -0.015946875 1.72064431312e-14
207 1 -0.027759375 -0.00125 -0.014765625 4.10990996918e-13
208 1 -0.027759375 -0.00125 -0.013584375 1.01833672083e-08
209 1 -0.027759375 -0.00125 -0.012403125 0.000107662060011
210 1 -0.027759375 -0.00125 -0.011221875 8.8384055779e-05
211 1 -0.027759375 -0.00125 -0.010040625 0.00484575272137
212 1 -0.027759375 -0.00125 -0.008859375 0.00337701941498
213 1 -0.027759375 -0.00125 -0.007678125 0.000706799843683
214 1 -0.027759375 -0.00125 -0.006496875 0.004807305663
215 1 -0.027759375 -0.00125 -0.005315625 0.0438880833417
216 1 -0.027759375 -0.00125 -0.004134375 0.085464538513
217 1 -0.027759375 -0.00125 -0.002953125 0.118993770077
218 1 -0.027759375 -0.00125 -0.001771875 0.0198316153868
219 1 -0.027759375 -0.00125 -0.000590625 0.0278374167013
220 1 -0.027759375 -0.00125 0.000590625 0.0136516438968
221 1 -0.027759375 -0.00125 0.001771875 0.00592949423364
222 1 -0.027759375 -0.00125 0.002953125 0.0145465699718
223 1 -0.027759375 -0.00125 0.004134375 0.000373191263886
224 1 -0.027759375 -0.00125 0.005315625 5.80095426675e-10
225 1 -0.027759375 -0.00125 0.006496875 1.22216372133e-13
226 1 -0.027759375 -0.00125 0.007678125 1.81456136892e-11
227 1 -0.027759375 -0.00125 0.008859375 3.19225706985e-12
228 1 -0.027759375 -0.00125 0.010040625 9.91281884388e-10
229 1 -0.027759375 -0.00125 0.011221875 1.34902908356e-17
230 1 -0.027759375 -0.00125 0.012403125 1.27717570004e-31
231 1 -0.027759375 -0.00125 0.013584375 6.12023002427e-41
232 1 -0.027759375 -0.00125 0.014765625 2.94086016222e-69
233 1 -0.027759375 -0.00125 0.015946875 5.35489332686e-48
234 1 -0.027759375 -0.00125 0.017128125 5.54758272737e-121
235 1 -0.027759375 -0.00125 0.018309375 3.14036635301e-82
236 1 -0.027759375 -0.00125 0.019490625 0.0
237 1 -0.027759375 -0.00125 0.020671875 0.0
238 1 -0.027759375 -0.00125 0.021853125 0.0
239 1 -0.027759375 -0.00125 0.023034375 0.0
240 1 -0.027759375 -0.00125 0.024215625 0.0
241 1 -0.026578125 -0.00125 -0.026578125 0.1520023731
242 1 -0.026578125 -0.00125 -0.025396875 0.156998467601
243 1 -0.026578125 -0.00125 -0.024215625 0.0633785648257
244 1 -0.026578125 -0.00125 -0.023034375 0.186911485472
245 1 -0.026578125 -0.00125 -0.021853125 0.296185742661
246 1 -0.026578125 -0.00125 -0.020671875 0.0447651895661
247 1 -0.026578125 -0.00125 -0.019490625 0.0040914031193
248 1 -0.026578125 -0.00125 -0.018309375 0.000356167114632
249 1 -0.026578125 -0.00125 -0.017128125 1.27797715695e-07
250 1 -0.026578125 -0.00125 -0.015946875 4.38627985674e-11
251 1 -0.026578125 -0.00125 -0.014765625 1.43811639575e-06
252 1 -0.026578125 -0.00125 -0.013584375 0.000498033126799
253 1 -0.026578125 -0.00125 -0.012403125 0.00451971727859
254 1 -0.026578125 -0.00125 -0.011221875 0.020454239337
255 1 -0.026578125 -0.00125 -0.010040625 0.0597987337574
256 1 -0.026578125 -0.00125 -0.008859375 0.0220864183039
257 1 -0.026578125 -0.00125 -0.007678125 0.0217225002933
258 1 -0.026578125 -0.00125 -0.006496875 0.0627712246662
259 1 -0.026578125 -0.00125 -0.005315625 0.0478133065303
260 1 -0.026578125 -0.00125 -0.004134375 0.0487219629525
261 1 -0.026578125 -0.00125 -0.002953125 0.0378724231007
262 1 -0.026578125 -0.00125 -0.001771875 0.0559226496132
263 1 -0.026578125 -0.00125 -0.000590625 0.024519229912
264 1 -0.026578125 -0.00125 0.000590625 0.0443324439203
265 1 -0.026578125 -0.00125 0.001771875 0.0189564737642
266 1 -0.026578125 -0.00125 0.002953125 0.00962217851556
267 1 -0.026578125 -0.00125 0.004134375 0.00129622912408
268 1 -0.026578125 -0.00125 0.005315625 0.00120393241947
269 1 -0.026578125 -0.00125 0.006496875 0.000164691485237
270 1 -0.026578125 -0.00125 0.007678125 0.000121723662777
271 1 -0.026578125 -0.00125 0.008859375 2.63337676365e-08
272 1 -0.026578125 -0.00125 0.010040625 8.11713651345e-06
273 1 -0.026578125 -0.00125 0.011221875 2.05728047534e-05
274 1 -0.026578125 -0.00125 0.012403125 9.51180326661e-11
275 1 -0.026578125 -0.00125 0.013584375 2.48271575994e-22
276 1 -0.026578125 -0.00125 0.014765625 3.26302862431e-20
277 1 -0.026578125 -0.00125 0.015946875 1.06420702874e-25
278 1 -0.026578125 -0.00125 0.017128125 1.75134087541e-32
279 1 -0.026578125 -0.00125 0.018309375 7.69689818074e-38
280 1 -0.026578125 -0.00125 0.019490625 1.42904936775e-177
281 1 -0.026578125 -0.00125 0.020671875 0.0
282 1 -0.026578125 -0.00125 0.021853125 0.0
283 1 -0.026578125 -0.00125 0.023034375 0.0
284 1 -0.026578125 -0.00125 0.024215625 0.0
285 1 -0.026578125 -0.00125 0.025396875 0.0
286 1 -0.026578125 -0.00125 0.026578125 0.0
287 1 -0.025396875 -0.00125 -0.026578125 0.172457296993
288 1 -0.025396875 -0.00125 -0.025396875 0.2079053643
289 1 -0.025396875 -0.00125 -0.024215625 0.190482017206
290 1 -0.025396875 -0.00125 -0.023034375 0.3466612964
291 1 -0.025396875 -0.00125 -0.021853125 0.105803859721
292 1 -0.025396875 -0.00125 -0.020671875 0.0560322306721
293 1 -0.025396875 -0.00125 -0.019490625 0.00439068203752
294 1 -0.025396875 -0.00125 -0.018309375 7.98768095436e-05
295 1 -0.025396875 -0.00125 -0.017128125 7.48074429206e-07
296 1 -0.025396875 -0.00125 -0.015946875 4.82727287144e-05
297 1 -0.025396875 -0.00125 -0.014765625 0.00117332220093
298 1 -0.025396875 -0.00125 -0.013584375 0.00171396372777
299 1 -0.025396875 -0.00125 -0.012403125 0.0884527025475
300 1 -0.025396875 -0.00125 -0.011221875 0.060482129079
301 1 -0.025396875 -0.00125 -0.010040625 0.170847810284
302 1 -0.025396875 -0.00125 -0.008859375 0.03597170974
303 1 -0.025396875 -0.00125 -0.007678125 0.0379982889737
304 1 -0.025396875 -0.00125 -0.006496875 0.0565415932448
305 1 -0.025396875 -0.00125 -0.005315625 0.108068884294
306 1 -0.025396875 -0.00125 -0.004134375 0.0707145391445
307 1 -0.025396875 -0.00125 -0.002953125 0.131656226177
308 1 -0.025396875 -0.00125 -0.001771875 0.0307237002389
309 1 -0.025396875 -0.00125 -0.000590625 0.0296872494611
310 1 -0.025396875 -0.00125 0.000590625 0.0404934089259
311 1 -0.025396875 -0.00125 0.001771875 0.0537201722779
312 1 -0.025396875 -0.00125 0.002953125 0.0105139908408
313 1 -0.025396875 -0.00125 0.004134375 0.0168187140587
314 1 -0.025396875 -0.00125 0.005315625 0.00992411193337
315 1 -0.025396875 -0.00125 0.006496875 0.00708185865125
316 1 -0.025396875 -0.00125 0.007678125 0.00223018323788
317 1 -0.025396875 -0.00125 0.008859375 0.00224054126967
318 1 -0.025396875 -0.00125 0.010040625 0.0222443191631
319 1 -0.025396875 -0.00125 0.011221875 0.00853665919791
320 1 -0.025396875 -0.00125 0.012403125 1.40247086681e-05
321 1 -0.025396875 -0.00125 0.013584375 3.17922847993e-08
322 1 -0.025396875 -0.00125 0.014765625 1.72678404512e-17
323 1 -0.025396875 -0.00125 0.015946875 1.9271678711e-24
324 1 -0.025396875 -0.00125 0.017128125 2.46352504682e-20
325 1 -0.025396875 -0.00125 0.018309375 3.65090604002e-23
326 1 -0.025396875 -0.00125 0.019490625 7.42340286531e-114
327 1 -0.025396875 -0.00125 0.020671875 8.07313714109e-267
328 1 -0.025396875 -0.00125 0.021853125 0.0
329 1 -0.025396875 -0.00125 0.023034375 0.0
330 1 -0.025396875 -0.00125 0.024215625 0.0
331 1 -0.025396875 -0.00125 0.025396875 0.0
332 1 -0.025396875 -0.00125 0.026578125 0.0
333 1 -0.024215625 -0.00125 -0.027759375 0.0951350948573
334 1 -0.024215625 -0.00125 -0.026578125 0.193830024755
335 1 -0.024215625 -0.00125 -0.025396875 0.201196102662
336 1 -0.024215625 -0.00125 -0.024215625 0.191742427331
337 1 -0.024215625 -0.00125 -0.023034375 0.0656343277583
338 1 -0.024215625 -0.00125 -0.021853125 0.0321369676686
339 1 -0.024215625 -0.00125 -0.020671875 0.0241500462036
340 1 -0.024215625 -0.00125 -0.019490625 0.00101612665397
341 1 -0.024215625 -0.00125 -0.018309375 0.000443896881632
342 1 -0.024215625 -0.00125 -0.017128125 0.00189738900927
343 1 -0.024215625 -0.00125 -0.015946875 0.0182428581454
344 1 -0.024215625 -0.00125 -0.014765625 0.0496800233868
345 1 -0.024215625 -0.00125 -0.013584375 0.106018586875
346 1 -0.024215625 -0.00125 -0.012403125 0.233692480896
347 1 -0.024215625 -0.00125 -0.011221875 0.214515314735
348 1 -0.024215625 -0.00125 -0.010040625 0.201101803678
349 1 -0.024215625 -0.00125 -0.008859375 0.0949520875598
350 1 -0.024215625 -0.00125 -0.007678125 0.110889876633
351 1 -0.024215625 -0.00125 -0.006496875 0.143294453225
352 1 -0.024215625 -0.00125 -0.005315625 0.0742410978652
353 1 -0.024215625 -0.00125 -0.004134375 0.111448621875
354 1 -0.024215625 -0.00125 -0.002953125 0.089987994423
355 1 -0.024215625 -0.00125 -0.001771875 0.0796613925308
356 1 -0.024215625 -0.00125 -0.000590625 0.092907457546
357 1 -0.024215625 -0.00125 0.000590625 0.0879155202581
358 1 -0.024215625 -0.00125 0.001771875 0.0901418520516
359 1 -0.024215625 -0.00125 0.002953125 0.110770181676
360 1 -0.024215625 -0.00125 0.004134375 0.0591601133699
361 1 -0.024215625 -0.00125 0.005315625 0.040278478054
362 1 -0.024215625 -0.00125 0.006496875 0.0113216954127
363 1 -0.024215625 -0.00125 0.007678125 0.0162521223617
364 1 -0.024215625 -0.00125 0.008859375 0.00842516415779
365 1 -0.024215625 -0.00125 0.010040625 0.00226086269905
366 1 -0.024215625 -0.00125 0.011221875 0.000330517713437
367 1 -0.024215625 -0.00125 0.012403125 0.000129242565574
368 1 -0.024215625 -0.00125 0.013584375 6.25711951013e-08
369 1 -0.024215625 -0.00125 0.014765625 6.36435434894e-10
370 1 -0.024215625 -0.00125 0.015946875 4.15978699863e-14
371 1 -0.024215625 -0.00125 0.017128125 2.24704023078e-17
372 1 -0.024215625 -0.00125 0.018309375 1.30004400188e-18
373 1 -0.024215625 -0.00125 0.019490625 1.23807736776e-88
374 1 -0.024215625 -0.00125 0.020671875 0.0
375 1 -0.024215625 -0.00125 0.021853125 0.0
376 1 -0.024215625 -0.00125 0.023034375 0.0
377 1 -0.024215625 -0.00125 0.024215625 0.0
378 1 -0.024215625 -0.00125 0.025396875 0.0
379 1 -0.024215625 -0.00125 0.026578125 0.0
380 1 -0.024215625 -0.00125 0.027759375 0.0
381 1 -0.023034375 -0.00125 -0.027759375 0.349703878508
382 1 -0.023034375 -0.00125 -0.026578125 0.322258274761
383 1 -0.023034375 -0.00125 -0.025396875 0.354464485997
384 1 -0.023034375 -0.00125 -0.024215625 0.223860174059
385 1 -0.023034375 -0.00125 -0.023034375 0.155172349251
386 1 -0.023034375 -0.00125 -0.021853125 0.0855512003522
387 1 -0.023034375 -0.00125 -0.020671875 0.0226427475326
388 1 -0.023034375 -0.00125 -0.019490625 0.00260963571125
389 1 -0.023034375 -0.00125 -0.018309375 0.00224787004408
390 1 -0.023034375 -0.00125 -0.017128125 0.0399447793124
391 1 -0.023034375 -0.00125 -0.015946875 0.05969968461
392 1 -0.023034375 -0.00125 -0.014765625 0.165635276839
393 1 -0.023034375 -0.00125 -0.013584375 0.312732292242
394 1 -0.023034375 -0.00125 -0.012403125 0.254915204667
395 1 -0.023034375 -0.00125 -0.011221875 0.284233746032
396 1 -0.023034375 -0.00125 -0.010040625 0.261917519382
397 1 -0.023034375 -0.00125 -0.008859375 0.134038222825
398 1 -0.023034375 -0.00125 -0.007678125 0.125996811002
399 1 -0.023034375 -0.00125 -0.006496875 0.159399436664
400 1 -0.023034375 -0.00125 -0.005315625 0.186019946603
401 1 -0.023034375 -0.00125 -0.004134375 0.114277231058
402 1 -0.023034375 -0.00125 -0.002953125 0.125479242195
403 1 -0.023034375 -0.00125 -0.001771875 0.152338195503
404 1 -0.023034375 -0.00125 -0.000590625 0.116525475846
405 1 -0.023034375 -0.00125 0.000590625 0.125491575317
406 1 -0.023034375 -0.00125 0.001771875 0.117007332871
407 1 -0.023034375 -0.00125 0.002953125 0.0916913245933
408 1 -0.023034375 -0.00125 0.004134375 0.0663657745822
409 1 -0.023034375 -0.00125 0.005315625 0.0139341295346
410 1 -0.023034375 -0.00125 0.006496875 0.0164063092902
411 1 -0.023034375 -0.00125 0.007678125 0.0132002646296
412 1 -0.023034375 -0.00125 0.008859375 0.0125384951663
413 1 -0.023034375 -0.00125 0.010040625 0.00985037764675
414 1 -0.023034375 -0.00125 0.011221875 0.00308839586851
415 1 -0.023034375 -0.00125 0.012403125 0.000314762975348
416 1 -0.023034375 -0.00125 0.013584375 8.68625523665e-05
417 1 -0.023034375 -0.00125 0.014765625 1.03905620875e-06
418 1 -0.023034375 -0.00125 0.015946875 2.7857436487e-10
419 1 -0.023034375 -0.00125 0.017128125 8.38609691619e-20
420 1 -0.023034375 -0.00125 0.018309375 3.68761870698e-23
421 1 -0.023034375 -0.00125 0.019490625 6.89563198898e-74
422 1 -0.023034375 -0.00125 0.020671875 0.0
423 1 -0.023034375 -0.00125 0.021853125 0.0
424 1 -0.023034375 -0.00125 0.023034375 0.0
425 1 -0.023034375 -0.00125 0.024215625 0.0
426 1 -0.023034375 -0.00125 0.025396875 0.0
427 1 -0.023034375 -0.00125 0.026578125 0.0
428 1 -0.023034375 -0.00125 0.027759375 0.0
429 1 -0.021853125 -0.00125 -0.028940625 0.356537314466
430 1 -0.021853125 -0.00125 -0.027759375 0.569575569617
431 1 -0.021853125 -0.00125 -0.026578125 0.499053433486
432 1 -0.021853125 -0.00125 -0.025396875 0.352015224249
433 1 -0.021853125 -0.00125 -0.024215625 0.260696362777
434 1 -0.021853125 -0.00125 -0.023034375 0.221320655625
435 1 -0.021853125 -0.00125 -0.021853125 0.124455487525
436 1 -0.021853125 -0.00125 -0.020671875 0.0420589688698
437 1 -0.021853125 -0.00125 -0.019490625 0.0189754464331
438 1 -0.021853125 -0.00125 -0.018309375 0.0248316130691
439 1 -0.021853125 -0.00125 -0.017128125 0.0797739774916
440 1 -0.021853125 -0.00125 -0.015946875 0.108698723155
441 1 -0.021853125 -0.00125 -0.014765625 0.303124649971
442 1 -0.021853125 -0.00125 -0.013584375 0.369018881206
443 1 -0.021853125 -0.00125 -0.012403125 0.238589200753
444 1 -0.021853125 -0.00125 -0.011221875 0.217382625134
445 1 -0.021853125 -0.00125 -0.010040625 0.217722570293
446 1 -0.021853125 -0.00125 -0.008859375 0.223396664402
447 1 -0.021853125 -0.00125 -0.007678125 0.309291674728
448 1 -0.021853125 -0.00125 -0.006496875 0.214937498845
449 1 -0.021853125 -0.00125 -0.005315625 0.135912835278
450 1 -0.021853125 -0.00125 -0.004134375 0.136560338459
451 1 -0.021853125 -0.00125 -0.002953125 0.102927146561
452 1 -0.021853125 -0.00125 -0.001771875 0.135430720658
453 1 -0.021853125 -0.00125 -0.000590625 0.188804967139
454 1 -0.021853125 -0.00125 0.000590625 0.171630952494
455 1 -0.021853125 -0.00125 0.001771875 0.0802570440948
456 1 -0.021853125 -0.00125 0.002953125 0.0337259166202
457 1 -0.021853125 -0.00125 0.004134375 0.0463959075514
458 1 -0.021853125 -0.00125 0.005315625 0.0815998193862
459 1 -0.021853125 -0.00125 0.006496875 0.0890313897315
460 1 -0.021853125 -0.00125 0.007678125 0.0419633537866
461 1 -0.021853125 -0.00125 0.008859375 0.0195141878414
462 1 -0.021853125 -0.00125 0.010040625 0.0051446557079
463 1 -0.021853125 -0.00125 0.011221875 0.00128346487709
464 1 -0.021853125 -0.00125 0.012403125 0.00124912392899
465 1 -0.021853125 -0.00125 0.013584375 0.000704868349981
466 1 -0.021853125 -0.00125 0.014765625 3.30936446855e-05
467 1 -0.021853125 -0.00125 0.015946875 7.55266041096e-09
468 1 -0.021853125 -0.00125 0.017128125 2.41477696596e-15
469 1 -0.021853125 -0.00125 0.018309375 6.43818181425e-28
470 1 -0.021853125 -0.00125 0.019490625 1.47730481106e-61
471 1 -0.021853125 -0.00125 0.020671875 0.0
472 1 -0.021853125 -0.00125 0.021853125 0.0
473 1 -0.021853125 -0.00125 0.023034375 0.0
474 1 -0.021853125 -0.00125 0.024215625 0.0
475 1 -0.021853125 -0.00125 0.025396875 0.0
476 1 -0.021853125 -0.00125 0.026578125 0.0
477 1 -0.021853125 -0.00125 0.027759375 0.0
478 1 -0.021853125 -0.00125 0.028940625 0.0
479 1 -0.020671875 -0.00125 -0.030121875 0.0520091560209
480 1 -0.020671875 -0.00125 -0.028940625 0.295395015389
481 1 -0.020671875 -0.00125 -0.027759375 0.677383713844
482 1 -0.020671875 -0.00125 -0.026578125 0.55178896097
483 1 -0.020671875 -0.00125 -0.025396875 0.493987149229
484 1 -0.020671875 -0.00125 -0.024215625 0.37533504808
485 1 -0.020671875 -0.00125 -0.023034375 0.275522757805
486 1 -0.020671875 -0.00125 -0.021853125 0.210141744097
487 1 -0.020671875 -0.00125 -0.020671875 0.15105877822
488 1 -0.020671875 -0.00125 -0.019490625 0.103078461654
489 1 -0.020671875 -0.00125 -0.018309375 0.131974565388
490 1 -0.020671875 -0.00125 -0.017128125 0.133728370006
491 1 -0.020671875 -0.00125 -0.015946875 0.119954887269
492 1 -0.020671875 -0.00125 -0.014765625 0.261933634838
493 1 -0.020671875 -0.00125 -0.013584375 0.289938801756
494 1 -0.020671875 -0.00125 -0.012403125 0.184458559746
495 1 -0.020671875 -0.00125 -0.011221875 0.0703502272076
496 1 -0.020671875 -0.00125 -0.010040625 0.159025036426
497 1 -0.020671875 -0.00125 -0.008859375 0.187433836509
498 1 -0.020671875 -0.00125 -0.007678125 0.223076698482
499 1 -0.020671875 -0.00125 -0.006496875 0.232608580646
500 1 -0.020671875 -0.00125 -0.005315625 0.320509473643
501 1 -0.020671875 -0.00125 -0.004134375 0.205219370397
502 1 -0.020671875 -0.00125 -0.002953125 0.13406423893
503 1 -0.020671875 -0.00125 -0.001771875 0.155769714963
504 1 -0.020671875 -0.00125 -0.000590625 0.203114356554
505 1 -0.020671875 -0.00125 0.000590625 0.160328358731
506 1 -0.020671875 -0.00125 0.001771875 0.107048948176
507 1 -0.020671875 -0.00125 0.002953125 0.0287712509577
508 1 -0.020671875 -0.00125 0.004134375 0.0194502411221
509 1 -0.020671875 -0.00125 0.005315625 0.0112490523349
510 1 -0.020671875 -0.00125 0.006496875 0.00964033229762
511 1 -0.020671875 -0.00125 0.007678125 0.00242748552025
512 1 -0.020671875 -0.00125 0.008859375 0.010344789071
513 1 -0.020671875 -0.00125 0.010040625 0.000503554592261
514 1 -0.020671875 -0.00125 0.011221875 0.000330650976852
515 1 -0.020671875 -0.00125 0.012403125 0.000351345294219
516 1 -0.020671875 -0.00125 0.013584375 0.000259324060927
517 1 -0.020671875 -0.00125 0.014765625 4.26971547643e-05
518 1 -0.020671875 -0.00125 0.015946875 3.16640139119e-06
519 1 -0.020671875 -0.00125 0.017128125 1.50195263743e-11
520 1 -0.020671875 -0.00125 0.018309375 1.52533946678e-16
521 1 -0.020671875 -0.00125 0.019490625 5.91728309744e-70
522 1 -0.020671875 -0.00125 0.020671875 0.0
523 1 -0.020671875 -0.00125 0.021853125 0.0
524 1 -0.020671875 -0.00125 0.023034375 0.0
525 1 -0.020671875 -0.00125 0.024215625 0.0
526 1 -0.020671875 -0.00125 0.025396875 0.0
527 1 -0.020671875 -0.00125 0.026578125 0.0
528 1 -0.020671875 -0.00125 0.027759375 0.0
529 1 -0.020671875 -0.00125 0.028940625 0.0
530 1 -0.020671875 -0.00125 0.030121875 0.0
531 1 -0.019490625 -0.00125 -0.031303125 0.00565443441788
532 1 -0.019490625 -0.00125 -0.030121875 0.0626301756288
533 1 -0.019490625 -0.00125 -0.028940625 0.318275374646
534 1 -0.019490625 -0.00125 -0.027759375 0.473611405808
535 1 -0.019490625 -0.00125 -0.026578125 0.56303455138