ITEM: TIMESTEP
0
ITEM: NUMBER OF ATOMS
3080
ITEM: BOX BOUNDS ss ss ss
-3.7007399999999996e-02 3.7007399999999996e-02
-2.0002499999999999e-03 2.5000000000000004e-07
-3.7007399999999996e-02 3.7007399999999996e-02
ITEM: ATOMS id type x y z c_1
0 1 -0.037209375 -0.00125 -0.000590625 0.999997701713
1 1 -0.036028125 -0.00125 -0.007678125 9.70827031877e-11
2 1 -0.036028125 -0.00125 -0.006496875 3.38049676759e-19
3 1 -0.036028125 -0.00125 -0.005315625 1.52203665691e-30
4 1 -0.036028125 -0.00125 -0.004134375 9.30817830565e-23
5 1 -0.036028125 -0.00125 -0.002953125 4.52343419718e-05
6 1 -0.036028125 -0.00125 -0.001771875 0.00090139841966
7 1 -0.036028125 -0.00125 -0.000590625 0.000118903726527
8 1 -0.036028125 -0.00125 0.000590625 2.44305918614e-23
9 1 -0.036028125 -0.00125 0.001771875 7.7584785126e-20
10 1 -0.036028125 -0.00125 0.002953125 1.28381155842e-49
11 1 -0.036028125 -0.00125 0.004134375 3.99693819798e-63
12 1 -0.036028125 -0.00125 0.005315625 2.16064790283e-66
13 1 -0.036028125 -0.00125 0.006496875 3.51644271849e-30
14 1 -0.036028125 -0.00125 0.007678125 9.28422792472e-27
15 1 -0.034846875 -0.00125 -0.011221875 0.0023860005504
16 1 -0.034846875 -0.00125 -0.010040625 3.25462594861e-05
17 1 -0.034846875 -0.00125 -0.008859375 0.000626361237762
18 1 -0.034846875 -0.00125 -0.007678125 1.66400521709e-23
19 1 -0.034846875 -0.00125 -0.006496875 1.20221825487e-18
20 1 -0.034846875 -0.00125 -0.005315625 1.67304497243e-40
21 1 -0.034846875 -0.00125 -0.004134375 1.17403442887e-41
22 1 -0.034846875 -0.00125 -0.002953125 3.32563526113e-07
23 1 -0.034846875 -0.00125 -0.001771875 2.15947437599e-07
24 1 -0.034846875 -0.00125 -0.000590625 1.59891996339e-08
25 1 -0.034846875 -0.00125 0.000590625 1.99487337129e-24
26 1 -0.034846875 -0.00125 0.001771875 7.70302726014e-60
27 1 -0.034846875 -0.00125 0.002953125 1.9274016818e-102
28 1 -0.034846875 -0.00125 0.004134375 5.67909410991e-115
29 1 -0.034846875 -0.00125 0.005315625 7.41362273529e-94
30 1 -0.034846875 -0.00125 0.006496875 8.8084483693e-68
31 1 -0.034846875 -0.00125 0.007678125 2.19460253562e-48
32 1 -0.034846875 -0.00125 0.008859375 4.57530247071e-10
33 1 -0.034846875 -0.00125 0.010040625 1.24985303204e-19
34 1 -0.034846875 -0.00125 0.011221875 9.39796043788e-19
35 1 -0.033665625 -0.00125 -0.013584375 4.61876875683e-05
36 1 -0.033665625 -0.00125 -0.012403125 0.0290328576007
37 1 -0.033665625 -0.00125 -0.011221875 0.00247551311076
38 1 -0.033665625 -0.00125 -0.010040625 6.28245427529e-05
39 1 -0.033665625 -0.00125 -0.008859375 8.74311398194e-06
40 1 -0.033665625 -0.00125 -0.007678125 1.69423883144e-12
41 1 -0.033665625 -0.00125 -0.006496875 4.01215517183e-25
42 1 -0.033665625 -0.00125 -0.005315625 6.52081070155e-44
43 1 -0.033665625 -0.00125 -0.004134375 9.02713983357e-17
44 1 -0.033665625 -0.00125 -0.002953125 2.03501985235e-13
45 1 -0.033665625 -0.00125 -0.001771875 2.52064769338e-10
46 1 -0.033665625 -0.00125 -0.000590625 2.76834381538e-08
47 1 -0.033665625 -0.00125 0.000590625 6.39580316791e-22
48 1 -0.033665625 -0.00125 0.001771875 5.65076313324e-53
49 1 -0.033665625 -0.00125 0.002953125 4.04501596179e-67
50 1 -0.033665625 -0.00125 0.004134375 3.44840492587e-129
51 1 -0.033665625 -0.00125 0.005315625 9.34138344103e-116
52 1 -0.033665625 -0.00125 0.006496875 3.90567189355e-46
53 1 -0.033665625 -0.00125 0.007678125 4.8638038529e-25
54 1 -0.033665625 -0.00125 0.008859375 4.74466857632e-11
55 1 -0.033665625 -0.00125 0.010040625 3.87174145325e-15
56 1 -0.033665625 -0.00125 0.011221875 1.17577887975e-21
57 1 -0.033665625 -0.00125 0.012403125 4.48314825257e-15
58 1 -0.033665625 -0.00125 0.013584375 7.61019432045e-51
59 1 -0.032484375 -0.00125 -0.018309375 0.000147524127434
60 1 -0.032484375 -0.00125 -0.017128125 4.44285550867e-06
61 1 -0.032484375 -0.00125 -0.015946875 0.00416593743136
62 1 -0.032484375 -0.00125 -0.014765625 0.000300664306159
63 1 -0.032484375 -0.00125 -0.013584375 6.30442189944e-07
64 1 -0.032484375 -0.00125 -0.012403125 0.00518870912348
65 1 -0.032484375 -0.00125 -0.011221875 0.00346709694008
66 1 -0.032484375 -0.00125 -0.010040625 1.86449054646e-05
67 1 -0.032484375 -0.00125 -0.008859375 5.83968649694e-05
68 1 -0.032484375 -0.00125 -0.007678125 1.18299713708e-05
69 1 -0.032484375 -0.00125 -0.006496875 1.46901309244e-12
70 1 -0.032484375 -0.00125 -0.005315625 1.82257002415e-10
71 1 -0.032484375 -0.00125 -0.004134375 2.28752847976e-11
72 1 -0.032484375 -0.00125 -0.002953125 9.93686156222e-14
73 1 -0.032484375 -0.00125 -0.001771875 4.45369106404e-09
74 1 -0.032484375 -0.00125 -0.000590625 7.63711152328e-09
75 1 -0.032484375 -0.00125 0.000590625 3.51798536348e-17
76 1 -0.032484375 -0.00125 0.001771875 5.52514640888e-10
77 1 -0.032484375 -0.00125 0.002953125 6.31241630851e-25
78 1 -0.032484375 -0.00125 0.004134375 1.04501863284e-27
79 1 -0.032484375 -0.00125 0.005315625 6.86264652577e-58
80 1 -0.032484375 -0.00125 0.006496875 5.70611352104e-24
81 1 -0.032484375 -0.00125 0.007678125 1.09592839086e-20
82 1 -0.032484375 -0.00125 0.008859375 5.55186274358e-12
83 1 -0.032484375 -0.00125 0.010040625 1.56070968484e-13
84 1 -0.032484375 -0.00125 0.011221875 2.74889340621e-15
85 1 -0.032484375 -0.00125 0.012403125 9.08601516973e-30
86 1 -0.032484375 -0.00125 0.013584375 1.84020340563e-135
87 1 -0.032484375 -0.00125 0.014765625 1.40350364491e-46
88 1 -0.032484375 -0.00125 0.015946875 1.52504996777e-25
89 1 -0.032484375 -0.00125 0.017128125 4.23592256573e-36
90 1 -0.032484375 -0.00125 0.018309375 1.26805832007e-47
91 1 -0.031303125 -0.00125 -0.019490625 6.82721901303e-06
92 1 -0.031303125 -0.00125 -0.018309375 0.000698638837523
93 1 -0.031303125 -0.00125 -0.017128125 0.00127314715025
94 1 -0.031303125 -0.00125 -0.015946875 0.000280355617208
95 1 -0.031303125 -0.00125 -0.014765625 0.000427507258756
96 1 -0.031303125 -0.00125 -0.013584375 1.52815605585e-05
97 1 -0.031303125 -0.00125 -0.012403125 0.00095994988191
98 1 -0.031303125 -0.00125 -0.011221875 0.000446518310106
99 1 -0.031303125 -0.00125 -0.010040625 8.87271597547e-05
100 1 -0.031303125 -0.00125 -0.008859375 3.4876436498e-06
101 1 -0.031303125 -0.00125 -0.007678125 1.39373526275e-05
102 1 -0.031303125 -0.00125 -0.006496875 8.31790424439e-07
103 1 -0.031303125 -0.00125 -0.005315625 1.26826496559e-06
104 1 -0.031303125 -0.00125 -0.004134375 1.46273566529e-10
105 1 -0.031303125 -0.00125 -0.002953125 3.49403262143e-06
106 1 -0.031303125 -0.00125 -0.001771875 1.33534429147e-05
107 1 -0.031303125 -0.00125 -0.000590625 1.07065447506e-06
108 1 -0.031303125 -0.00125 0.000590625 2.10701813367e-07
109 1 -0.031303125 -0.00125 0.001771875 6.62779809118e-07
110 1 -0.031303125 -0.00125 0.002953125 7.94486900538e-08
111 1 -0.031303125 -0.00125 0.004134375 5.06032638517e-09
112 1 -0.031303125 -0.00125 0.005315625 2.38078842943e-09
113 1 -0.031303125 -0.00125 0.006496875 1.2107251765e-11
114 1 -0.031303125 -0.00125 0.007678125 1.52509443049e-12
115 1 -0.031303125 -0.00125 0.008859375 4.79122053711e-18
116 1 -0.031303125 -0.00125 0.010040625 8.64026945701e-19
117 1 -0.031303125 -0.00125 0.011221875 3.51590686325e-14
118 1 -0.031303125 -0.00125 0.012403125 1.54796976849e-12
119 1 -0.031303125 -0.00125 0.013584375 6.81657732995e-35
120 1 -0.031303125 -0.00125 0.014765625 1.25265188226e-34
121 1 -0.031303125 -0.00125 0.015946875 2.16143477776e-33
122 1 -0.031303125 -0.00125 0.017128125 6.96797423842e-67
123 1 -0.031303125 -0.00125 0.018309375 8.9411169629e-47
124 1 -0.031303125 -0.00125 0.019490625 7.85976570976e-74
125 1 -0.030121875 -0.00125 -0.020671875 1.2956406913e-07
126 1 -0.030121875 -0.00125 -0.019490625 9.51964098685e-05
127 1 -0.030121875 -0.00125 -0.018309375 0.000178203215314
128 1 -0.030121875 -0.00125 -0.017128125 0.000404021514443
129 1 -0.030121875 -0.00125 -0.015946875 6.2784151055e-05
130 1 -0.030121875 -0.00125 -0.014765625 9.64442865829e-07
131 1 -0.030121875 -0.00125 -0.013584375 8.8020281734e-09
132 1 -0.030121875 -0.00125 -0.012403125 0.000260910788307
133 1 -0.030121875 -0.00125 -0.011221875 6.85476839116e-05
134 1 -0.030121875 -0.00125 -0.010040625 8.55974334264e-06
135 1 -0.030121875 -0.00125 -0.008859375 3.64274289871e-08
136 1 -0.030121875 -0.00125 -0.007678125 2.37158221823e-06
137 1 -0.030121875 -0.00125 -0.006496875 5.46070171049e-09
138 1 -0.030121875 -0.00125 -0.005315625 7.1947810094e-05
139 1 -0.030121875 -0.00125 -0.004134375 9.15622251366e-09
140 1 -0.030121875 -0.00125 -0.002953125 0.00106773482289
141 1 -0.030121875 -0.00125 -0.001771875 5.00033846543e-05
142 1 -0.030121875 -0.00125 -0.000590625 3.69629718591e-07
143 1 -0.030121875 -0.00125 0.000590625 3.89175576338e-06
144 1 -0.030121875 -0.00125 0.001771875 0.000123315904853
145 1 -0.030121875 -0.00125 0.002953125 8.64094698103e-06
146 1 -0.030121875 -0.00125 0.004134375 9.10330453258e-06
147 1 -0.030121875 -0.00125 0.005315625 1.83182630658e-05
148 1 -0.030121875 -0.00125 0.006496875 9.10593016244e-08
149 1 -0.030121875 -0.00125 0.007678125 9.97372401916e-13
150 1 -0.030121875 -0.00125 0.008859375 1.04532797534e-19
151 1 -0.030121875 -0.00125 0.010040625 1.22743421227e-10
152 1 -0.030121875 -0.00125 0.011221875 3.25656383396e-20
153 1 -0.030121875 -0.00125 0.012403125 2.69188966924e-11
154 1 -0.030121875 -0.00125 0.013584375 1.30466878194e-12
155 1 -0.030121875 -0.00125 0.014765625 3.59504178944e-19
156 1 -0.030121875 -0.00125 0.015946875 1.52224922587e-40
157 1 -0.030121875 -0.00125 0.017128125 1.50899387556e-37
158 1 -0.030121875 -0.00125 0.018309375 1.10020723887e-62
159 1 -0.030121875 -0.00125 0.019490625 2.24730132649e-151
160 1 -0.030121875 -0.00125 0.020671875 2.34728281298e-167
161 1 -0.028940625 -0.00125 -0.021853125 0.111895481497
162 1 -0.028940625 -0.00125 -0.020671875 0.00896222047875
163 1 -0.028940625 -0.00125 -0.019490625 0.0022256775962
164 1 -0.028940625 -0.00125 -0.018309375 1.25985576454e-05
165 1 -0.028940625 -0.00125 -0.017128125 1.24661074689e-06
166 1 -0.028940625 -0.00125 -0.015946875 1.46012115963e-05
167 1 -0.028940625 -0.00125 -0.014765625 6.07190200212e-06
168 1 -0.028940625 -0.00125 -0.013584375 1.08973554385e-07
169 1 -0.028940625 -0.00125 -0.012403125 1.91419328515e-07
170 1 -0.028940625 -0.00125 -0.011221875 9.48369216902e-07
171 1 -0.028940625 -0.00125 -0.010040625 1.58276763339e-06
172 1 -0.028940625 -0.00125 -0.008859375 6.98234544938e-07
173 1 -0.028940625 -0.00125 -0.007678125 2.79318658263e-06
174 1 -0.028940625 -0.00125 -0.006496875 0.000180518491135
175 1 -0.028940625 -0.00125 -0.005315625 0.0011601896271
176 1 -0.028940625 -0.00125 -0.004134375 0.00248475485262
177 1 -0.028940625 -0.00125 -0.002953125 0.00157721234143
178 1 -0.028940625 -0.00125 -0.001771875 0.00141319943528
179 1 -0.028940625 -0.00125 -0.000590625 0.000313674550867
180 1 -0.028940625 -0.00125 0.000590625 0.00268722258218
181 1 -0.028940625 -0.00125 0.001771875 0.0019506420788
182 1 -0.028940625 -0.00125 0.002953125 0.00112937567645
183 1 -0.028940625 -0.00125 0.004134375 7.27797320741e-08
184 1 -0.028940625 -0.00125 0.005315625 1.26345486851e-10
185 1 -0.028940625 -0.00125 0.006496875 1.42440701285e-07
186 1 -0.028940625 -0.00125 0.007678125 1.95383684133e-12
187 1 -0.028940625 -0.00125 0.008859375 2.22303665042e-15
188 1 -0.028940625 -0.00125 0.010040625 1.89069648e-15
189 1 -0.028940625 -0.00125 0.011221875 1.62383012008e-14
190 1 -0.028940625 -0.00125 0.012403125 2.08269311781e-15
191 1 -0.028940625 -0.00125 0.013584375 1.86132811686e-12
192 1 -0.028940625 -0.00125 0.014765625 1.15067604278e-20
193 1 -0.028940625 -0.00125 0.015946875 4.54387962265e-24
194 1 -0.028940625 -0.00125 0.017128125 1.22558089036e-28
195 1 -0.028940625 -0.00125 0.018309375 1.5075744909e-41
196 1 -0.028940625 -0.00125 0.019490625 1.06029291089e-135
197 1 -0.028940625 -0.00125 0.020671875 1.76004887397e-155
198 1 -0.028940625 -0.00125 0.021853125 9.1354549691e-80
199 1 -0.027759375 -0.00125 -0.024215625 0.00281045452575
200 1 -0.027759375 -0.00125 -0.023034375 0.0708001752827
201 1 -0.027759375 -0.00125 -0.021853125 0.335410823634
202 1 -0.027759375 -0.00125 -0.020671875 0.0862513042898
203 1 -0.027759375 -0.00125 -0.019490625 0.00342171664381
204 1 -0.027759375 -0.00125 -0.018309375 0.000404342919977
205 1 -0.027759375 -0.00125 -0.017128125 4.74064645286e-06
206 1 -0.027759375 -0.00125 -0.015946875 3.06332869002e-07
207 1 -0.027759375 -0.00125 -0.014765625 3.00901341753e-08
208 1 -0.027759375 -0.00125 -0.013584375 5.40882683465e-10
209 1 -0.027759375 -0.00125 -0.012403125 2.94947507494e-05
210 1 -0.027759375 -0.00125 -0.011221875 1.5712088014e-05
211 1 -0.027759375 -0.00125 -0.010040625 0.000103844796002
212 1 -0.027759375 -0.00125 -0.008859375 8.9131741991e-05
213 1 -0.027759375 -0.00125 -0.007678125 0.00352952044473
214 1 -0.027759375 -0.00125 -0.006496875 0.0131396561778
215 1 -0.027759375 -0.00125 -0.005315625 0.0276119223798
216 1 -0.027759375 -0.00125 -0.004134375 0.0481521945833
217 1 -0.027759375 -0.00125 -0.002953125 0.0268747011855
218 1 -0.027759375 -0.00125 -0.001771875 0.0147618981702
219 1 -0.027759375 -0.00125 -0.000590625 0.0106107214005
220 1 -0.027759375 -0.00125 0.000590625 0.00748074394722
221 1 -0.027759375 -0.00125 0.001771875 0.0110844954594
222 1 -0.027759375 -0.00125 0.002953125 0.00358151944046
223 1 -0.027759375 -0.00125 0.004134375 0.000707660951612
224 1 -0.027759375 -0.00125 0.005315625 5.33309288514e-07
225 1 -0.027759375 -0.00125 0.006496875 2.35405070592e-07
226 1 -0.027759375 -0.00125 0.007678125 1.41441430741e-06
227 1 -0.027759375 -0.00125 0.008859375 1.52649016196e-05
228 1 -0.027759375 -0.00125 0.010040625 1.61571240389e-05
229 1 -0.027759375 -0.00125 0.011221875 3.41541240721e-07
230 1 -0.027759375 -0.00125 0.012403125 3.77634700375e-07
231 1 -0.027759375 -0.00125 0.013584375 9.09373954569e-07
232 1 -0.027759375 -0.00125 0.014765625 6.31802826872e-07
233 1 -0.027759375 -0.00125 0.015946875 4.49373043498e-10
234 1 -0.027759375 -0.00125 0.017128125 3.29079481165e-24
235 1 -0.027759375 -0.00125 0.018309375 3.49990320197e-30
236 1 -0.027759375 -0.00125 0.019490625 1.26177243126e-59
237 1 -0.027759375 -0.00125 0.020671875 7.92928187461e-114
238 1 -0.027759375 -0.00125 0.021853125 3.06694101392e-69
239 1 -0.027759375 -0.00125 0.023034375 3.62990491269e-134
240 1 -0.027759375 -0.00125 0.024215625 0.0
241 1 -0.026578125 -0.00125 -0.026578125 0.00248732671302
242 1 -0.026578125 -0.00125 -0.025396875 0.00669601668283
243 1 -0.026578125 -0.00125 -0.024215625 0.00764429072661
244 1 -0.026578125 -0.00125 -0.023034375 0.115363212112
245 1 -0.026578125 -0.00125 -0.021853125 0.313052438159
246 1 -0.026578125 -0.00125 -0.020671875 0.097378081681
247 1 -0.026578125 -0.00125 -0.019490625 0.0154466368276
248 1 -0.026578125 -0.00125 -0.018309375 0.00211727222837
249 1 -0.026578125 -0.00125 -0.017128125 5.96916284592e-05
250 1 -0.026578125 -0.00125 -0.015946875 1.28623101212e-06
251 1 -0.026578125 -0.00125 -0.014765625 1.32369569857e-06
252 1 -0.026578125 -0.00125 -0.013584375 4.63632131305e-06
253 1 -0.026578125 -0.00125 -0.012403125 4.61066719859e-05
254 1 -0.026578125 -0.00125 -0.011221875 0.00036464456799
255 1 -0.026578125 -0.00125 -0.010040625 0.00194733962581
256 1 -0.026578125 -0.00125 -0.008859375 0.0116131208965
257 1 -0.026578125 -0.00125 -0.007678125 0.0840911217383
258 1 -0.026578125 -0.00125 -0.006496875 0.0939149270322
259 1 -0.026578125 -0.00125 -0.005315625 0.059102128
260 1 -0.026578125 -0.00125 -0.004134375 0.0475907388111
261 1 -0.026578125 -0.00125 -0.002953125 0.0309859194905
262 1 -0.026578125 -0.00125 -0.001771875 0.0421235849399
263 1 -0.026578125 -0.00125 -0.000590625 0.0138834180553
264 1 -0.026578125 -0.00125 0.000590625 0.0280588099996
265 1 -0.026578125 -0.00125 0.001771875 0.0268890998564
266 1 -0.026578125 -0.00125 0.002953125 0.0170115105228
267 1 -0.026578125 -0.00125 0.004134375 0.00608305286569
268 1 -0.026578125 -0.00125 0.005315625 0.0045639271793
269 1 -0.026578125 -0.00125 0.006496875 0.000105075994711
270 1 -0.026578125 -0.00125 0.007678125 0.000402655021048
271 1 -0.026578125 -0.00125 0.008859375 5.79730384503e-05
272 1 -0.026578125 -0.00125 0.010040625 0.000216808996582
273 1 -0.026578125 -0.00125 0.011221875 0.00215239012638
274 1 -0.026578125 -0.00125 0.012403125 0.000484692240142
275 1 -0.026578125 -0.00125 0.013584375 0.000247073860293
276 1 -0.026578125 -0.00125 0.014765625 0.000148790182472
277 1 -0.026578125 -0.00125 0.015946875 8.2019776367e-08
278 1 -0.026578125 -0.00125 0.017128125 2.56934352676e-11
279 1 -0.026578125 -0.00125 0.018309375 4.71771104342e-16
280 1 -0.026578125 -0.00125 0.019490625 3.84802405706e-28
281 1 -0.026578125 -0.00125 0.020671875 5.80166751312e-90
282 1 -0.026578125 -0.00125 0.021853125 2.28245493098e-169
283 1 -0.026578125 -0.00125 0.023034375 0.0
284 1 -0.026578125 -0.00125 0.024215625 4.28187720772e-306
285 1 -0.026578125 -0.00125 0.025396875 1.01829235151e-250
286 1 -0.026578125 -0.00125 0.026578125 6.19285047963e-167
287 1 -0.025396875 -0.00125 -0.026578125 0.000141337094299
288 1 -0.025396875 -0.00125 -0.025396875 0.00355426402769
289 1 -0.025396875 -0.00125 -0.024215625 0.0196865566686
290 1 -0.025396875 -0.00125 -0.023034375 0.150005345667
291 1 -0.025396875 -0.00125 -0.021853125 0.170249825588
292 1 -0.025396875 -0.00125 -0.020671875 0.0845538095776
293 1 -0.025396875 -0.00125 -0.019490625 0.00712649982718
294 1 -0.025396875 -0.00125 -0.018309375 0.0047929531482
295 1 -0.025396875 -0.00125 -0.017128125 0.000265309990308
296 1 -0.025396875 -0.00125 -0.015946875 0.000278299555458
297 1 -0.025396875 -0.00125 -0.014765625 0.000223510910616
298 1 -0.025396875 -0.00125 -0.013584375 4.71397569773e-05
299 1 -0.025396875 -0.00125 -0.012403125 0.00603271875371
300 1 -0.025396875 -0.00125 -0.011221875 0.01140507185
301 1 -0.025396875 -0.00125 -0.010040625 0.0602181707184
302 1 -0.025396875 -0.00125 -0.008859375 0.0533270642887
303 1 -0.025396875 -0.00125 -0.007678125 0.144596375104
304 1 -0.025396875 -0.00125 -0.006496875 0.0970600081495
305 1 -0.025396875 -0.00125 -0.005315625 0.0561359410019
306 1 -0.025396875 -0.00125 -0.004134375 0.0566265600067
307 1 -0.025396875 -0.00125 -0.002953125 0.0403314204617
308 1 -0.025396875 -0.00125 -0.001771875 0.0267311168341
309 1 -0.025396875 -0.00125 -0.000590625 0.0133272531772
310 1 -0.025396875 -0.00125 0.000590625 0.037721174702
311 1 -0.025396875 -0.00125 0.001771875 0.0412837097503
312 1 -0.025396875 -0.00125 0.002953125 0.0124086265384
313 1 -0.025396875 -0.00125 0.004134375 0.0113712908992
314 1 -0.025396875 -0.00125 0.005315625 0.0190586580277
315 1 -0.025396875 -0.00125 0.006496875 0.0215041008899
316 1 -0.025396875 -0.00125 0.007678125 0.0076636752287
317 1 -0.025396875 -0.00125 0.008859375 0.0138725631056
318 1 -0.025396875 -0.00125 0.010040625 0.0180639647106
319 1 -0.025396875 -0.00125 0.011221875 0.0148542572148
320 1 -0.025396875 -0.00125 0.012403125 0.0164460013951
321 1 -0.025396875 -0.00125 0.013584375 0.013792699505
322 1 -0.025396875 -0.00125 0.014765625 6.90832488105e-06
323 1 -0.025396875 -0.00125 0.015946875 5.58365793157e-07
324 1 -0.025396875 -0.00125 0.017128125 3.52559451038e-09
325 1 -0.025396875 -0.00125 0.018309375 2.0984156e-11
326 1 -0.025396875 -0.00125 0.019490625 1.67271395221e-22
327 1 -0.025396875 -0.00125 0.020671875 5.85360372535e-30
328 1 -0.025396875 -0.00125 0.021853125 3.56894241493e-263
329 1 -0.025396875 -0.00125 0.023034375 6.70721659651e-273
330 1 -0.025396875 -0.00125 0.024215625 0.0
331 1 -0.025396875 -0.00125 0.025396875 6.29300843091e-183
332 1 -0.025396875 -0.00125 0.026578125 0.0
333 1 -0.024215625 -0.00125 -0.027759375 4.48743724607e-05
334 1 -0.024215625 -0.00125 -0.026578125 0.00134577406424
335 1 -0.024215625 -0.00125 -0.025396875 0.00833518090889
336 1 -0.024215625 -0.00125 -0.024215625 0.0578747215476
337 1 -0.024215625 -0.00125 -0.023034375 0.0432895073834
338 1 -0.024215625 -0.00125 -0.021853125 0.0521922825262
339 1 -0.024215625 -0.00125 -0.020671875 0.040647666315
340 1 -0.024215625 -0.00125 -0.019490625 0.00780726859597
341 1 -0.024215625 -0.00125 -0.018309375 0.0015401015014
342 1 -0.024215625 -0.00125 -0.017128125 0.00298465691374
343 1 -0.024215625 -0.00125 -0.015946875 0.00395665358348
344 1 -0.024215625 -0.00125 -0.014765625 0.0062839776438
345 1 -0.024215625 -0.00125 -0.013584375 0.0184757110658
346 1 -0.024215625 -0.00125 -0.012403125 0.0756676080682
347 1 -0.024215625 -0.00125 -0.011221875 0.089722233816
348 1 -0.024215625 -0.00125 -0.010040625 0.0896255575749
349 1 -0.024215625 -0.00125 -0.008859375 0.0684870787037
350 1 -0.024215625 -0.00125 -0.007678125 0.0793030749024
351 1 -0.024215625 -0.00125 -0.006496875 0.0615221489451
352 1 -0.024215625 -0.00125 -0.005315625 0.0349706804896
353 1 -0.024215625 -0.00125 -0.004134375 0.038119002433
354 1 -0.024215625 -0.00125 -0.002953125 0.0307678853349
355 1 -0.024215625 -0.00125 -0.001771875 0.0332783654225
356 1 -0.024215625 -0.00125 -0.000590625 0.0207072343163
357 1 -0.024215625 -0.00125 0.000590625 0.0285513309211
358 1 -0.024215625 -0.00125 0.001771875 0.0376607077531
359 1 -0.024215625 -0.00125 0.002953125 0.02799731876
360 1 -0.024215625 -0.00125 0.004134375 0.0246878559786
361 1 -0.024215625 -0.00125 0.005315625 0.0299301355677
362 1 -0.024215625 -0.00125 0.006496875 0.0266880384973
363 1 -0.024215625 -0.00125 0.007678125 0.0330735414418
364 1 -0.024215625 -0.00125 0.008859375 0.028250261454
365 1 -0.024215625 -0.00125 0.010040625 0.0390994511508
366 1 -0.024215625 -0.00125 0.011221875 0.0171468753441
367 1 -0.024215625 -0.00125 0.012403125 0.0371820448234
368 1 -0.024215625 -0.00125 0.013584375 0.00896788509751
369 1 -0.024215625 -0.00125 0.014765625 0.000330170366224
370 1 -0.024215625 -0.00125 0.015946875 2.32776547693e-05
371 1 -0.024215625 -0.00125 0.017128125 5.54828866346e-08
372 1 -0.024215625 -0.00125 0.018309375 1.97193544133e-10
373 1 -0.024215625 -0.00125 0.019490625 8.73754391175e-25
374 1 -0.024215625 -0.00125 0.020671875 4.83021980831e-33
375 1 -0.024215625 -0.00125 0.021853125 1.00867855243e-51
376 1 -0.024215625 -0.00125 0.023034375 3.67929491445e-193
377 1 -0.024215625 -0.00125 0.024215625 0.0
378 1 -0.024215625 -0.00125 0.025396875 6.21010522795e-234
379 1 -0.024215625 -0.00125 0.026578125 1.57789384139e-216
380 1 -0.024215625 -0.00125 0.027759375 9.24414283261e-156
381 1 -0.023034375 -0.00125 -0.027759375 0.000702084875796
382 1 -0.023034375 -0.00125 -0.026578125 0.0332860525527
383 1 -0.023034375 -0.00125 -0.025396875 0.0746250750634
384 1 -0.023034375 -0.00125 -0.024215625 0.068359907579
385 1 -0.023034375 -0.00125 -0.023034375 0.0926418024321
386 1 -0.023034375 -0.00125 -0.021853125 0.0367241794196
387 1 -0.023034375 -0.00125 -0.020671875 0.0341689131604
388 1 -0.023034375 -0.00125 -0.019490625 0.0118472457753
389 1 -0.023034375 -0.00125 -0.018309375 0.0101335003737
390 1 -0.023034375 -0.00125 -0.017128125 0.0351207036386
391 1 -0.023034375 -0.00125 -0.015946875 0.0241138827208
392 1 -0.023034375 -0.00125 -0.014765625 0.0349294993953
393 1 -0.023034375 -0.00125 -0.013584375 0.0642995983054
394 1 -0.023034375 -0.00125 -0.012403125 0.0959543849823
395 1 -0.023034375 -0.00125 -0.011221875 0.102085581116
396 1 -0.023034375 -0.00125 -0.010040625 0.0570846080784
397 1 -0.023034375 -0.00125 -0.008859375 0.0706150808741
398 1 -0.023034375 -0.00125 -0.007678125 0.0710444522124
399 1 -0.023034375 -0.00125 -0.006496875 0.0613987282029
400 1 -0.023034375 -0.00125 -0.005315625 0.0552403805909
401 1 -0.023034375 -0.00125 -0.004134375 0.060049706725
402 1 -0.023034375 -0.00125 -0.002953125 0.0396505512178
403 1 -0.023034375 -0.00125 -0.001771875 0.0429846525986
404 1 -0.023034375 -0.00125 -0.000590625 0.0306860325601
405 1 -0.023034375 -0.00125 0.000590625 0.0535086754583
406 1 -0.023034375 -0.00125 0.001771875 0.0578278097023
407 1 -0.023034375 -0.00125 0.002953125 0.0426685772789
408 1 -0.023034375 -0.00125 0.004134375 0.026586393093
409 1 -0.023034375 -0.00125 0.005315625 0.0232930035027
410 1 -0.023034375 -0.00125 0.006496875 0.0529450389655
411 1 -0.023034375 -0.00125 0.007678125 0.0448490452148
412 1 -0.023034375 -0.00125 0.008859375 0.0811250237336
413 1 -0.023034375 -0.00125 0.010040625 0.0932497330219
414 1 -0.023034375 -0.00125 0.011221875 0.0690708697781
415 1 -0.023034375 -0.00125 0.012403125 0.041514517584
416 1 -0.023034375 -0.00125 0.013584375 0.00934173973812
417 1 -0.023034375 -0.00125 0.014765625 0.00196359973941
418 1 -0.023034375 -0.00125 0.015946875 0.000603387002348
419 1 -0.023034375 -0.00125 0.017128125 3.46248346123e-07
420 1 -0.023034375 -0.00125 0.018309375 4.00204247271e-07
421 1 -0.023034375 -0.00125 0.019490625 2.50896818806e-09
422 1 -0.023034375 -0.00125 0.020671875 2.1819084091e-13
423 1 -0.023034375 -0.00125 0.021853125 6.45395122772e-65
424 1 -0.023034375 -0.00125 0.023034375 1.1450421264e-199
425 1 -0.023034375 -0.00125 0.024215625 2.87585857353e-173
426 1 -0.023034375 -0.00125 0.025396875 6.20668090571e-199
427 1 -0.023034375 -0.00125 0.026578125 1.11873017704e-179
428 1 -0.023034375 -0.00125 0.027759375 1.01066783537e-44
429 1 -0.021853125 -0.00125 -0.028940625 0.00471160356756
430 1 -0.021853125 -0.00125 -0.027759375 0.0354783110326
431 1 -0.021853125 -0.00125 -0.026578125 0.0282716094907
432 1 -0.021853125 -0.00125 -0.025396875 0.0633418253853
433 1 -0.021853125 -0.00125 -0.024215625 0.0918784485652
434 1 -0.021853125 -0.00125 -0.023034375 0.0755983934001
435 1 -0.021853125 -0.00125 -0.021853125 0.0543991685103
436 1 -0.021853125 -0.00125 -0.020671875 0.038143066349
437 1 -0.021853125 -0.00125 -0.019490625 0.0536537476152
438 1 -0.021853125 -0.00125 -0.018309375 0.0412087896509
439 1 -0.021853125 -0.00125 -0.017128125 0.0527979573015
440 1 -0.021853125 -0.00125 -0.015946875 0.05693202922
441 1 -0.021853125 -0.00125 -0.014765625 0.125856256711
442 1 -0.021853125 -0.00125 -0.013584375 0.124022830906
443 1 -0.021853125 -0.00125 -0.012403125 0.0724008160795
444 1 -0.021853125 -0.00125 -0.011221875 0.0646601763636
445 1 -0.021853125 -0.00125 -0.010040625 0.0423012065344
446 1 -0.021853125 -0.00125 -0.008859375 0.0597964458024
447 1 -0.021853125 -0.00125 -0.007678125 0.0887240108549
448 1 -0.021853125 -0.00125 -0.006496875 0.0412617054215
449 1 -0.021853125 -0.00125 -0.005315625 0.025824227959
450 1 -0.021853125 -0.00125 -0.004134375 0.0344334548605
451 1 -0.021853125 -0.00125 -0.002953125 0.0198620153351
452 1 -0.021853125 -0.00125 -0.001771875 0.0246507916357
453 1 -0.021853125 -0.00125 -0.000590625 0.0386952039476
454 1 -0.021853125 -0.00125 0.000590625 0.0455474584639
455 1 -0.021853125 -0.00125 0.001771875 0.051759530139
456 1 -0.021853125 -0.00125 0.002953125 0.0543339350145
457 1 -0.021853125 -0.00125 0.004134375 0.082734838438
458 1 -0.021853125 -0.00125 0.005315625 0.0873878261241
459 1 -0.021853125 -0.00125 0.006496875 0.0877525764078
460 1 -0.021853125 -0.00125 0.007678125 0.0751685752762
461 1 -0.021853125 -0.00125 0.008859375 0.134366165638
462 1 -0.021853125 -0.00125 0.010040625 0.110815689827
463 1 -0.021853125 -0.00125 0.011221875 0.0619285587699
464 1 -0.021853125 -0.00125 0.012403125 0.0264726008756
465 1 -0.021853125 -0.00125 0.013584375 0.0196087979794
466 1 -0.021853125 -0.00125 0.014765625 0.00968357646774
467 1 -0.021853125 -0.00125 0.015946875 0.00416272645668
468 1 -0.021853125 -0.00125 0.017128125 0.00027911956391
469 1 -0.021853125 -0.00125 0.018309375 2.82074279319e-06
470 1 -0.021853125 -0.00125 0.019490625 2.52421178914e-06
471 1 -0.021853125 -0.00125 0.020671875 1.33809663062e-13
472 1 -0.021853125 -0.00125 0.021853125 1.19705443549e-21
473 1 -0.021853125 -0.00125 0.023034375 4.48880583968e-37
474 1 -0.021853125 -0.00125 0.024215625 4.30222191926e-46
475 1 -0.021853125 -0.00125 0.025396875 3.35978842826e-54
476 1 -0.021853125 -0.00125 0.026578125 1.24824003525e-39
477 1 -0.021853125 -0.00125 0.027759375 5.39379538945e-28
478 1 -0.021853125 -0.00125 0.028940625 1.20000392158e-23
479 1 -0.020671875 -0.00125 -0.030121875 0.00552805407015
480 1 -0.020671875 -0.00125 -0.028940625 0.0116525227817
481 1 -0.020671875 -0.00125 -0.027759375 0.0594959541886
482 1 -0.020671875 -0.00125 -0.026578125 0.0458277430978
483 1 -0.020671875 -0.00125 -0.025396875 0.0646358646019
484 1 -0.020671875 -0.00125 -0.024215625 0.0963662136862
485 1 -0.020671875 -0.00125 -0.023034375 0.113062371224
486 1 -0.020671875 -0.00125 -0.021853125 0.13588957957
487 1 -0.020671875 -0.00125 -0.020671875 0.0603643378605
488 1 -0.020671875 -0.00125 -0.019490625 0.103897921277
489 1 -0.020671875 -0.00125 -0.018309375 0.138467730335
490 1 -0.020671875 -0.00125 -0.017128125 0.102490215748
491 1 -0.020671875 -0.00125 -0.015946875 0.111017211128
492 1 -0.020671875 -0.00125 -0.014765625 0.100706592253
493 1 -0.020671875 -0.00125 -0.013584375 0.129644603147
494 1 -0.020671875 -0.00125 -0.012403125 0.106077817952
495 1 -0.020671875 -0.00125 -0.011221875 0.00889239185911
496 1 -0.020671875 -0.00125 -0.010040625 0.0277285670733
497 1 -0.020671875 -0.00125 -0.008859375 0.0178532305646
498 1 -0.020671875 -0.00125 -0.007678125 0.0193127484853
499 1 -0.020671875 -0.00125 -0.006496875 0.0287123735465
500 1 -0.020671875 -0.00125 -0.005315625 0.032612734599
501 1 -0.020671875 -0.00125 -0.004134375 0.0453231710663
502 1 -0.020671875 -0.00125 -0.002953125 0.0368583571439
503 1 -0.020671875 -0.00125 -0.001771875 0.0838123361845
504 1 -0.020671875 -0.00125 -0.000590625 0.0698857754945
505 1 -0.020671875 -0.00125 0.000590625 0.0980424096695
506 1 -0.020671875 -0.00125 0.001771875 0.131565420514
507 1 -0.020671875 -0.00125 0.002953125 0.139293765573
508 1 -0.020671875 -0.00125 0.004134375 0.108959433827
509 1 -0.020671875 -0.00125 0.005315625 0.0929389377329
510 1 -0.020671875 -0.00125 0.006496875 0.0753453828931
511 1 -0.020671875 -0.00125 0.007678125 0.0745051905367
512 1 -0.020671875 -0.00125 0.008859375 0.137890093718
513 1 -0.020671875 -0.00125 0.010040625 0.103638908457
514 1 -0.020671875 -0.00125 0.011221875 0.0760125203417
515 1 -0.020671875 -0.00125 0.012403125 0.07652749803
516 1 -0.020671875 -0.00125 0.013584375 0.0154158198163
517 1 -0.020671875 -0.00125 0.014765625 0.0308460279375
518 1 -0.020671875 -0.00125 0.015946875 0.0137792057758
519 1 -0.020671875 -0.00125 0.017128125 0.000775473169117