ITEM: TIMESTEP
0
ITEM: NUMBER OF ATOMS
3080
ITEM: BOX BOUNDS ss ss ss
-3.7007399999999996e-02 3.7007399999999996e-02
-2.0002499999999999e-03 2.5000000000000004e-07
-3.7007399999999996e-02 3.7007399999999996e-02
ITEM: ATOMS id type x y z c_1
0 1 -0.037209375 -0.00125 -0.000590625 0.0378937565833
1 1 -0.036028125 -0.00125 -0.007678125 2.74604591956e-12
2 1 -0.036028125 -0.00125 -0.006496875 1.13988048892e-10
3 1 -0.036028125 -0.00125 -0.005315625 2.57369001338e-14
4 1 -0.036028125 -0.00125 -0.004134375 2.7392736589e-15
5 1 -0.036028125 -0.00125 -0.002953125 4.16158551381e-06
6 1 -0.036028125 -0.00125 -0.001771875 1.94067197772e-06
7 1 -0.036028125 -0.00125 -0.000590625 0.000883947041475
8 1 -0.036028125 -0.00125 0.000590625 0.000967039549284
9 1 -0.036028125 -0.00125 0.001771875 0.0303827790157
10 1 -0.036028125 -0.00125 0.002953125 7.69501722256e-05
11 1 -0.036028125 -0.00125 0.004134375 2.60573655384e-09
12 1 -0.036028125 -0.00125 0.005315625 4.43039021347e-16
13 1 -0.036028125 -0.00125 0.006496875 2.15717771214e-07
14 1 -0.036028125 -0.00125 0.007678125 3.59754802222e-07
15 1 -0.034846875 -0.00125 -0.011221875 7.84928468636e-06
16 1 -0.034846875 -0.00125 -0.010040625 1.8107160431e-08
17 1 -0.034846875 -0.00125 -0.008859375 1.93610820774e-08
18 1 -0.034846875 -0.00125 -0.007678125 2.82040594608e-17
19 1 -0.034846875 -0.00125 -0.006496875 6.45662507785e-33
20 1 -0.034846875 -0.00125 -0.005315625 3.07134257363e-27
21 1 -0.034846875 -0.00125 -0.004134375 6.08717034306e-16
22 1 -0.034846875 -0.00125 -0.002953125 1.44689577547e-10
23 1 -0.034846875 -0.00125 -0.001771875 3.70157090435e-05
24 1 -0.034846875 -0.00125 -0.000590625 0.000672939900323
25 1 -0.034846875 -0.00125 0.000590625 0.00679154838712
26 1 -0.034846875 -0.00125 0.001771875 0.0165152250642
27 1 -0.034846875 -0.00125 0.002953125 2.50207105374e-06
28 1 -0.034846875 -0.00125 0.004134375 3.44879986612e-15
29 1 -0.034846875 -0.00125 0.005315625 1.74726013326e-17
30 1 -0.034846875 -0.00125 0.006496875 1.61472224732e-14
31 1 -0.034846875 -0.00125 0.007678125 1.63686064139e-06
32 1 -0.034846875 -0.00125 0.008859375 0.0139007268133
33 1 -0.034846875 -0.00125 0.010040625 9.21572269704e-05
34 1 -0.034846875 -0.00125 0.011221875 0.00585003041133
35 1 -0.033665625 -0.00125 -0.013584375 1.90462326966e-12
36 1 -0.033665625 -0.00125 -0.012403125 6.88867868717e-05
37 1 -0.033665625 -0.00125 -0.011221875 5.40474358837e-06
38 1 -0.033665625 -0.00125 -0.010040625 8.50344290275e-07
39 1 -0.033665625 -0.00125 -0.008859375 5.04805338785e-08
40 1 -0.033665625 -0.00125 -0.007678125 9.50867776069e-18
41 1 -0.033665625 -0.00125 -0.006496875 1.305362212e-28
42 1 -0.033665625 -0.00125 -0.005315625 8.87244594212e-40
43 1 -0.033665625 -0.00125 -0.004134375 1.36213698024e-14
44 1 -0.033665625 -0.00125 -0.002953125 2.55567282942e-06
45 1 -0.033665625 -0.00125 -0.001771875 7.52543470732e-05
46 1 -0.033665625 -0.00125 -0.000590625 0.000885075698012
47 1 -0.033665625 -0.00125 0.000590625 0.00793851466737
48 1 -0.033665625 -0.00125 0.001771875 0.00706915982864
49 1 -0.033665625 -0.00125 0.002953125 0.000123172074208
50 1 -0.033665625 -0.00125 0.004134375 6.57295586954e-14
51 1 -0.033665625 -0.00125 0.005315625 9.64290082676e-13
52 1 -0.033665625 -0.00125 0.006496875 3.68364421906e-12
53 1 -0.033665625 -0.00125 0.007678125 1.80209222505e-05
54 1 -0.033665625 -0.00125 0.008859375 0.00217962570894
55 1 -0.033665625 -0.00125 0.010040625 0.000858095418647
56 1 -0.033665625 -0.00125 0.011221875 0.00730486958793
57 1 -0.033665625 -0.00125 0.012403125 0.105774116057
58 1 -0.033665625 -0.00125 0.013584375 0.00061613270447
59 1 -0.032484375 -0.00125 -0.018309375 3.24664098691e-13
60 1 -0.032484375 -0.00125 -0.017128125 1.00917971578e-09
61 1 -0.032484375 -0.00125 -0.015946875 1.38983680163e-07
62 1 -0.032484375 -0.00125 -0.014765625 7.60314680517e-10
63 1 -0.032484375 -0.00125 -0.013584375 7.22190949467e-12
64 1 -0.032484375 -0.00125 -0.012403125 2.86692393807e-08
65 1 -0.032484375 -0.00125 -0.011221875 4.40948379836e-07
66 1 -0.032484375 -0.00125 -0.010040625 1.58521556201e-07
67 1 -0.032484375 -0.00125 -0.008859375 1.87863579281e-08
68 1 -0.032484375 -0.00125 -0.007678125 7.2538363613e-06
69 1 -0.032484375 -0.00125 -0.006496875 9.25204667601e-23
70 1 -0.032484375 -0.00125 -0.005315625 5.66565865426e-26
71 1 -0.032484375 -0.00125 -0.004134375 1.53315552459e-14
72 1 -0.032484375 -0.00125 -0.002953125 2.29250984664e-06
73 1 -0.032484375 -0.00125 -0.001771875 0.000147718853559
74 1 -0.032484375 -0.00125 -0.000590625 0.000641635473046
75 1 -0.032484375 -0.00125 0.000590625 0.00250392884845
76 1 -0.032484375 -0.00125 0.001771875 5.31388147878e-05
77 1 -0.032484375 -0.00125 0.002953125 3.68933905613e-05
78 1 -0.032484375 -0.00125 0.004134375 8.19228659394e-19
79 1 -0.032484375 -0.00125 0.005315625 6.09948991087e-09
80 1 -0.032484375 -0.00125 0.006496875 2.23980774382e-13
81 1 -0.032484375 -0.00125 0.007678125 6.23957075159e-06
82 1 -0.032484375 -0.00125 0.008859375 0.00101022191576
83 1 -0.032484375 -0.00125 0.010040625 0.00125103893856
84 1 -0.032484375 -0.00125 0.011221875 0.0313204535118
85 1 -0.032484375 -0.00125 0.012403125 0.0302928954985
86 1 -0.032484375 -0.00125 0.013584375 1.93016696473e-08
87 1 -0.032484375 -0.00125 0.014765625 0.00112398203655
88 1 -0.032484375 -0.00125 0.015946875 0.0174339533156
89 1 -0.032484375 -0.00125 0.017128125 0.0115254705096
90 1 -0.032484375 -0.00125 0.018309375 0.00489899799059
91 1 -0.031303125 -0.00125 -0.019490625 3.18099805538e-13
92 1 -0.031303125 -0.00125 -0.018309375 1.40296236894e-11
93 1 -0.031303125 -0.00125 -0.017128125 7.56473835729e-09
94 1 -0.031303125 -0.00125 -0.015946875 2.39860710418e-10
95 1 -0.031303125 -0.00125 -0.014765625 6.98224351448e-08
96 1 -0.031303125 -0.00125 -0.013584375 5.09449835431e-09
97 1 -0.031303125 -0.00125 -0.012403125 6.53465033706e-09
98 1 -0.031303125 -0.00125 -0.011221875 2.73209202721e-07
99 1 -0.031303125 -0.00125 -0.010040625 2.41366247696e-06
100 1 -0.031303125 -0.00125 -0.008859375 4.88442240934e-08
101 1 -0.031303125 -0.00125 -0.007678125 3.48520938406e-09
102 1 -0.031303125 -0.00125 -0.006496875 1.49001438879e-11
103 1 -0.031303125 -0.00125 -0.005315625 3.44019110919e-11
104 1 -0.031303125 -0.00125 -0.004134375 4.28184246487e-10
105 1 -0.031303125 -0.00125 -0.002953125 7.96011692658e-07
106 1 -0.031303125 -0.00125 -0.001771875 0.000270410152459
107 1 -0.031303125 -0.00125 -0.000590625 0.000554812775337
108 1 -0.031303125 -0.00125 0.000590625 0.000472545619467
109 1 -0.031303125 -0.00125 0.001771875 0.000360600821944
110 1 -0.031303125 -0.00125 0.002953125 6.26840866696e-05
111 1 -0.031303125 -0.00125 0.004134375 2.18762662093e-07
112 1 -0.031303125 -0.00125 0.005315625 1.11371839647e-07
113 1 -0.031303125 -0.00125 0.006496875 2.31833670919e-08
114 1 -0.031303125 -0.00125 0.007678125 1.60320305743e-06
115 1 -0.031303125 -0.00125 0.008859375 5.42659004289e-06
116 1 -0.031303125 -0.00125 0.010040625 1.63272130087e-05
117 1 -0.031303125 -0.00125 0.011221875 0.00104554972047
118 1 -0.031303125 -0.00125 0.012403125 0.00318763500792
119 1 -0.031303125 -0.00125 0.013584375 0.000162485468987
120 1 -0.031303125 -0.00125 0.014765625 0.00392396464587
121 1 -0.031303125 -0.00125 0.015946875 0.0103536884948
122 1 -0.031303125 -0.00125 0.017128125 0.0105250040535
123 1 -0.031303125 -0.00125 0.018309375 0.00627134066231
124 1 -0.031303125 -0.00125 0.019490625 8.37751652585e-05
125 1 -0.030121875 -0.00125 -0.020671875 2.36546491241e-29
126 1 -0.030121875 -0.00125 -0.019490625 1.36320120792e-18
127 1 -0.030121875 -0.00125 -0.018309375 2.89769899097e-10
128 1 -0.030121875 -0.00125 -0.017128125 2.89963631844e-08
129 1 -0.030121875 -0.00125 -0.015946875 9.79426172725e-11
130 1 -0.030121875 -0.00125 -0.014765625 1.70021686274e-08
131 1 -0.030121875 -0.00125 -0.013584375 9.34939790046e-07
132 1 -0.030121875 -0.00125 -0.012403125 8.18592241764e-08
133 1 -0.030121875 -0.00125 -0.011221875 8.89986369952e-06
134 1 -0.030121875 -0.00125 -0.010040625 4.44099512613e-09
135 1 -0.030121875 -0.00125 -0.008859375 9.10711328991e-09
136 1 -0.030121875 -0.00125 -0.007678125 6.91465998983e-11
137 1 -0.030121875 -0.00125 -0.006496875 8.9028015984e-09
138 1 -0.030121875 -0.00125 -0.005315625 2.16854867061e-07
139 1 -0.030121875 -0.00125 -0.004134375 1.50396568815e-09
140 1 -0.030121875 -0.00125 -0.002953125 1.2310591144e-06
141 1 -0.030121875 -0.00125 -0.001771875 0.000364738998096
142 1 -0.030121875 -0.00125 -0.000590625 9.00451359891e-06
143 1 -0.030121875 -0.00125 0.000590625 0.000129599121847
144 1 -0.030121875 -0.00125 0.001771875 0.000289793844613
145 1 -0.030121875 -0.00125 0.002953125 1.52207849039e-05
146 1 -0.030121875 -0.00125 0.004134375 5.85976606026e-09
147 1 -0.030121875 -0.00125 0.005315625 1.39510552075e-08
148 1 -0.030121875 -0.00125 0.006496875 9.90563894214e-08
149 1 -0.030121875 -0.00125 0.007678125 9.38652919737e-07
150 1 -0.030121875 -0.00125 0.008859375 4.85670523068e-07
151 1 -0.030121875 -0.00125 0.010040625 1.01949065489e-05
152 1 -0.030121875 -0.00125 0.011221875 1.4053648736e-05
153 1 -0.030121875 -0.00125 0.012403125 0.000176842458853
154 1 -0.030121875 -0.00125 0.013584375 0.00027077133264
155 1 -0.030121875 -0.00125 0.014765625 0.00209039888827
156 1 -0.030121875 -0.00125 0.015946875 0.00541021124701
157 1 -0.030121875 -0.00125 0.017128125 0.0308080156434
158 1 -0.030121875 -0.00125 0.018309375 0.0129111515504
159 1 -0.030121875 -0.00125 0.019490625 0.00257058821154
160 1 -0.030121875 -0.00125 0.020671875 0.00688845618665
161 1 -0.028940625 -0.00125 -0.021853125 2.50002506719e-11
162 1 -0.028940625 -0.00125 -0.020671875 2.21508707892e-16
163 1 -0.028940625 -0.00125 -0.019490625 3.05637206335e-10
164 1 -0.028940625 -0.00125 -0.018309375 1.37287313413e-09
165 1 -0.028940625 -0.00125 -0.017128125 5.81926578557e-07
166 1 -0.028940625 -0.00125 -0.015946875 7.53807898233e-06
167 1 -0.028940625 -0.00125 -0.014765625 7.84017242976e-06
168 1 -0.028940625 -0.00125 -0.013584375 3.63279744775e-06
169 1 -0.028940625 -0.00125 -0.012403125 1.09811512148e-10
170 1 -0.028940625 -0.00125 -0.011221875 1.63652176685e-09
171 1 -0.028940625 -0.00125 -0.010040625 1.51105128844e-08
172 1 -0.028940625 -0.00125 -0.008859375 2.67269017494e-09
173 1 -0.028940625 -0.00125 -0.007678125 1.48068398235e-07
174 1 -0.028940625 -0.00125 -0.006496875 2.98215334134e-06
175 1 -0.028940625 -0.00125 -0.005315625 1.96157363796e-06
176 1 -0.028940625 -0.00125 -0.004134375 1.04024360498e-05
177 1 -0.028940625 -0.00125 -0.002953125 1.61548679402e-06
178 1 -0.028940625 -0.00125 -0.001771875 2.58026021325e-07
179 1 -0.028940625 -0.00125 -0.000590625 9.3611249585e-06
180 1 -0.028940625 -0.00125 0.000590625 3.6469349148e-08
181 1 -0.028940625 -0.00125 0.001771875 5.72759938444e-06
182 1 -0.028940625 -0.00125 0.002953125 7.24120759805e-06
183 1 -0.028940625 -0.00125 0.004134375 5.031307274e-06
184 1 -0.028940625 -0.00125 0.005315625 7.8306349901e-07
185 1 -0.028940625 -0.00125 0.006496875 7.16961301387e-07
186 1 -0.028940625 -0.00125 0.007678125 3.29634615194e-08
187 1 -0.028940625 -0.00125 0.008859375 5.98991949138e-08
188 1 -0.028940625 -0.00125 0.010040625 1.81212473884e-08
189 1 -0.028940625 -0.00125 0.011221875 1.19311375855e-06
190 1 -0.028940625 -0.00125 0.012403125 8.3198123538e-07
191 1 -0.028940625 -0.00125 0.013584375 4.27991154558e-07
192 1 -0.028940625 -0.00125 0.014765625 0.000101694579035
193 1 -0.028940625 -0.00125 0.015946875 0.0129509063351
194 1 -0.028940625 -0.00125 0.017128125 0.0180880120321
195 1 -0.028940625 -0.00125 0.018309375 0.0119613380497
196 1 -0.028940625 -0.00125 0.019490625 0.00696752876558
197 1 -0.028940625 -0.00125 0.020671875 0.0198738640979
198 1 -0.028940625 -0.00125 0.021853125 0.0378963604409
199 1 -0.027759375 -0.00125 -0.024215625 1.68823100377e-62
200 1 -0.027759375 -0.00125 -0.023034375 1.26694934935e-31
201 1 -0.027759375 -0.00125 -0.021853125 4.22231311564e-11
202 1 -0.027759375 -0.00125 -0.020671875 1.27668445286e-20
203 1 -0.027759375 -0.00125 -0.019490625 1.04166942495e-13
204 1 -0.027759375 -0.00125 -0.018309375 4.65297008389e-10
205 1 -0.027759375 -0.00125 -0.017128125 7.1271817395e-05
206 1 -0.027759375 -0.00125 -0.015946875 0.000285099714834
207 1 -0.027759375 -0.00125 -0.014765625 0.000456791865097
208 1 -0.027759375 -0.00125 -0.013584375 7.36273343004e-07
209 1 -0.027759375 -0.00125 -0.012403125 5.76603548517e-07
210 1 -0.027759375 -0.00125 -0.011221875 1.28542945636e-08
211 1 -0.027759375 -0.00125 -0.010040625 3.41221996375e-07
212 1 -0.027759375 -0.00125 -0.008859375 2.21820779883e-07
213 1 -0.027759375 -0.00125 -0.007678125 2.47233266409e-05
214 1 -0.027759375 -0.00125 -0.006496875 2.46878456836e-05
215 1 -0.027759375 -0.00125 -0.005315625 2.06520905101e-05
216 1 -0.027759375 -0.00125 -0.004134375 4.31208363487e-05
217 1 -0.027759375 -0.00125 -0.002953125 0.000154284898118
218 1 -0.027759375 -0.00125 -0.001771875 5.92911575789e-05
219 1 -0.027759375 -0.00125 -0.000590625 0.000873282203644
220 1 -0.027759375 -0.00125 0.000590625 0.00108964330287
221 1 -0.027759375 -0.00125 0.001771875 0.000191560225026
222 1 -0.027759375 -0.00125 0.002953125 9.66669576846e-06
223 1 -0.027759375 -0.00125 0.004134375 6.08185879452e-08
224 1 -0.027759375 -0.00125 0.005315625 2.16877592011e-05
225 1 -0.027759375 -0.00125 0.006496875 5.28879963513e-07
226 1 -0.027759375 -0.00125 0.007678125 7.10573514308e-07
227 1 -0.027759375 -0.00125 0.008859375 8.830736789e-05
228 1 -0.027759375 -0.00125 0.010040625 9.26518838089e-06
229 1 -0.027759375 -0.00125 0.011221875 3.15629695311e-08
230 1 -0.027759375 -0.00125 0.012403125 7.12801849915e-07
231 1 -0.027759375 -0.00125 0.013584375 1.54145781384e-06
232 1 -0.027759375 -0.00125 0.014765625 1.23648709731e-05
233 1 -0.027759375 -0.00125 0.015946875 0.00129170960199
234 1 -0.027759375 -0.00125 0.017128125 0.00584100085657
235 1 -0.027759375 -0.00125 0.018309375 0.0334549354881
236 1 -0.027759375 -0.00125 0.019490625 0.00912210294227
237 1 -0.027759375 -0.00125 0.020671875 0.00402908651987
238 1 -0.027759375 -0.00125 0.021853125 0.0792161230542
239 1 -0.027759375 -0.00125 0.023034375 0.00522347366091
240 1 -0.027759375 -0.00125 0.024215625 2.39561327138e-06
241 1 -0.026578125 -0.00125 -0.026578125 3.40194590997e-31
242 1 -0.026578125 -0.00125 -0.025396875 1.03795469383e-59
243 1 -0.026578125 -0.00125 -0.024215625 2.68305943776e-68
244 1 -0.026578125 -0.00125 -0.023034375 9.08573822786e-38
245 1 -0.026578125 -0.00125 -0.021853125 1.60477705584e-24
246 1 -0.026578125 -0.00125 -0.020671875 3.99561475912e-15
247 1 -0.026578125 -0.00125 -0.019490625 1.81606606789e-08
248 1 -0.026578125 -0.00125 -0.018309375 4.96041047807e-06
249 1 -0.026578125 -0.00125 -0.017128125 0.000102943645674
250 1 -0.026578125 -0.00125 -0.015946875 0.000714981418699
251 1 -0.026578125 -0.00125 -0.014765625 5.94720974673e-05
252 1 -0.026578125 -0.00125 -0.013584375 0.000607224381635
253 1 -0.026578125 -0.00125 -0.012403125 5.11203534472e-06
254 1 -0.026578125 -0.00125 -0.011221875 6.76493223085e-06
255 1 -0.026578125 -0.00125 -0.010040625 5.45168310082e-07
256 1 -0.026578125 -0.00125 -0.008859375 7.14209867981e-06
257 1 -0.026578125 -0.00125 -0.007678125 0.000390567890576
258 1 -0.026578125 -0.00125 -0.006496875 0.000326759826129
259 1 -0.026578125 -0.00125 -0.005315625 0.000689316516759
260 1 -0.026578125 -0.00125 -0.004134375 0.00403815472504
261 1 -0.026578125 -0.00125 -0.002953125 0.00216119426784
262 1 -0.026578125 -0.00125 -0.001771875 0.00338176615175
263 1 -0.026578125 -0.00125 -0.000590625 0.00404681097815
264 1 -0.026578125 -0.00125 0.000590625 0.00200217215451
265 1 -0.026578125 -0.00125 0.001771875 0.00316217047655
266 1 -0.026578125 -0.00125 0.002953125 0.00823968270053
267 1 -0.026578125 -0.00125 0.004134375 0.000899744742483
268 1 -0.026578125 -0.00125 0.005315625 0.00146225653845
269 1 -0.026578125 -0.00125 0.006496875 5.03017345687e-06
270 1 -0.026578125 -0.00125 0.007678125 6.48748971765e-05
271 1 -0.026578125 -0.00125 0.008859375 4.4372950305e-05
272 1 -0.026578125 -0.00125 0.010040625 9.17241955659e-05
273 1 -0.026578125 -0.00125 0.011221875 1.2639833424e-05
274 1 -0.026578125 -0.00125 0.012403125 8.51879331261e-06
275 1 -0.026578125 -0.00125 0.013584375 0.000104568006495
276 1 -0.026578125 -0.00125 0.014765625 0.000767653958969
277 1 -0.026578125 -0.00125 0.015946875 0.00205408251319
278 1 -0.026578125 -0.00125 0.017128125 0.00594292716999
279 1 -0.026578125 -0.00125 0.018309375 0.0319592657684
280 1 -0.026578125 -0.00125 0.019490625 0.0147380701375
281 1 -0.026578125 -0.00125 0.020671875 0.0154571746383
282 1 -0.026578125 -0.00125 0.021853125 0.014757683335
283 1 -0.026578125 -0.00125 0.023034375 0.00129841459249
284 1 -0.026578125 -0.00125 0.024215625 0.000133297532365
285 1 -0.026578125 -0.00125 0.025396875 5.41718464987e-07
286 1 -0.026578125 -0.00125 0.026578125 0.000124877799997
287 1 -0.025396875 -0.00125 -0.026578125 4.89147954845e-36
288 1 -0.025396875 -0.00125 -0.025396875 2.90842062203e-72
289 1 -0.025396875 -0.00125 -0.024215625 3.80948731855e-55
290 1 -0.025396875 -0.00125 -0.023034375 2.44763528782e-70
291 1 -0.025396875 -0.00125 -0.021853125 2.92176278522e-20
292 1 -0.025396875 -0.00125 -0.020671875 1.90210292011e-12
293 1 -0.025396875 -0.00125 -0.019490625 9.40059959142e-07
294 1 -0.025396875 -0.00125 -0.018309375 4.73313376319e-05
295 1 -0.025396875 -0.00125 -0.017128125 0.00143652081855
296 1 -0.025396875 -0.00125 -0.015946875 0.000111721043654
297 1 -0.025396875 -0.00125 -0.014765625 0.00764826983929
298 1 -0.025396875 -0.00125 -0.013584375 0.016085387577
299 1 -0.025396875 -0.00125 -0.012403125 0.000934733196152
300 1 -0.025396875 -0.00125 -0.011221875 0.00622455872128
301 1 -0.025396875 -0.00125 -0.010040625 0.000924841670332
302 1 -0.025396875 -0.00125 -0.008859375 0.000375242339159
303 1 -0.025396875 -0.00125 -0.007678125 0.000281310364234
304 1 -0.025396875 -0.00125 -0.006496875 0.00119307960301
305 1 -0.025396875 -0.00125 -0.005315625 0.00257258767534
306 1 -0.025396875 -0.00125 -0.004134375 0.00303774137195
307 1 -0.025396875 -0.00125 -0.002953125 0.00246003537543
308 1 -0.025396875 -0.00125 -0.001771875 0.00035315298015
309 1 -0.025396875 -0.00125 -0.000590625 0.00659571455794
310 1 -0.025396875 -0.00125 0.000590625 0.00623738440265
311 1 -0.025396875 -0.00125 0.001771875 0.0067323029194
312 1 -0.025396875 -0.00125 0.002953125 0.000844826292788
313 1 -0.025396875 -0.00125 0.004134375 0.00372020842389
314 1 -0.025396875 -0.00125 0.005315625 0.00344731541069
315 1 -0.025396875 -0.00125 0.006496875 0.00365824125642
316 1 -0.025396875 -0.00125 0.007678125 0.00109104829225
317 1 -0.025396875 -0.00125 0.008859375 0.000405082427273
318 1 -0.025396875 -0.00125 0.010040625 1.60329188903e-05
319 1 -0.025396875 -0.00125 0.011221875 0.000116888435666
320 1 -0.025396875 -0.00125 0.012403125 3.77211243195e-05
321 1 -0.025396875 -0.00125 0.013584375 4.21741767708e-06
322 1 -0.025396875 -0.00125 0.014765625 4.07946918488e-05
323 1 -0.025396875 -0.00125 0.015946875 0.00270964740439
324 1 -0.025396875 -0.00125 0.017128125 0.00615819900017
325 1 -0.025396875 -0.00125 0.018309375 0.0122758786707
326 1 -0.025396875 -0.00125 0.019490625 0.0146039991456
327 1 -0.025396875 -0.00125 0.020671875 0.0178537575017
328 1 -0.025396875 -0.00125 0.021853125 0.0298810184061
329 1 -0.025396875 -0.00125 0.023034375 0.00386337189443
330 1 -0.025396875 -0.00125 0.024215625 0.00103547226977
331 1 -0.025396875 -0.00125 0.025396875 0.000320345920332
332 1 -0.025396875 -0.00125 0.026578125 2.59233509697e-10
333 1 -0.024215625 -0.00125 -0.027759375 3.39295369311e-19
334 1 -0.024215625 -0.00125 -0.026578125 8.01177448289e-24
335 1 -0.024215625 -0.00125 -0.025396875 3.28681915765e-34
336 1 -0.024215625 -0.00125 -0.024215625 7.51312129349e-23
337 1 -0.024215625 -0.00125 -0.023034375 1.35888940065e-22
338 1 -0.024215625 -0.00125 -0.021853125 8.86974726656e-12
339 1 -0.024215625 -0.00125 -0.020671875 8.19544336269e-08
340 1 -0.024215625 -0.00125 -0.019490625 5.37904621944e-05
341 1 -0.024215625 -0.00125 -0.018309375 4.23785310411e-05
342 1 -0.024215625 -0.00125 -0.017128125 0.000594954122727
343 1 -0.024215625 -0.00125 -0.015946875 0.00802875677567
344 1 -0.024215625 -0.00125 -0.014765625 0.0103331977869
345 1 -0.024215625 -0.00125 -0.013584375 0.00576254573864
346 1 -0.024215625 -0.00125 -0.012403125 0.00393369510182
347 1 -0.024215625 -0.00125 -0.011221875 0.00386917576616
348 1 -0.024215625 -0.00125 -0.010040625 0.00386286994334
349 1 -0.024215625 -0.00125 -0.008859375 0.00366945194426
350 1 -0.024215625 -0.00125 -0.007678125 0.000575690415709
351 1 -0.024215625 -0.00125 -0.006496875 0.00417748823763
352 1 -0.024215625 -0.00125 -0.005315625 0.0185604948678
353 1 -0.024215625 -0.00125 -0.004134375 0.0105329230658
354 1 -0.024215625 -0.00125 -0.002953125 0.0066233509815
355 1 -0.024215625 -0.00125 -0.001771875 0.012417462817
356 1 -0.024215625 -0.00125 -0.000590625 0.0141173636216
357 1 -0.024215625 -0.00125 0.000590625 0.0154604685698
358 1 -0.024215625 -0.00125 0.001771875 0.00677195060644
359 1 -0.024215625 -0.00125 0.002953125 0.00136623340766
360 1 -0.024215625 -0.00125 0.004134375 0.00568448767521
361 1 -0.024215625 -0.00125 0.005315625 0.00383545068501
362 1 -0.024215625 -0.00125 0.006496875 0.0079479273806
363 1 -0.024215625 -0.00125 0.007678125 0.00360696520216
364 1 -0.024215625 -0.00125 0.008859375 0.000728962022403
365 1 -0.024215625 -0.00125 0.010040625 0.00203581194827
366 1 -0.024215625 -0.00125 0.011221875 0.000246755644322
367 1 -0.024215625 -0.00125 0.012403125 0.000160649909628
368 1 -0.024215625 -0.00125 0.013584375 0.000401235758729
369 1 -0.024215625 -0.00125 0.014765625 0.00143409717593
370 1 -0.024215625 -0.00125 0.015946875 0.00226124017484
371 1 -0.024215625 -0.00125 0.017128125 0.00961465149282
372 1 -0.024215625 -0.00125 0.018309375 0.0135128868024
373 1 -0.024215625 -0.00125 0.019490625 0.0110292888754
374 1 -0.024215625 -0.00125 0.020671875 0.0249280440517
375 1 -0.024215625 -0.00125 0.021853125 0.0246068195682
376 1 -0.024215625 -0.00125 0.023034375 0.00463303914587
377 1 -0.024215625 -0.00125 0.024215625 7.19249362054e-05
378 1 -0.024215625 -0.00125 0.025396875 8.95877909638e-05
379 1 -0.024215625 -0.00125 0.026578125 3.38915394997e-05
380 1 -0.024215625 -0.00125 0.027759375 9.13359140686e-06
381 1 -0.023034375 -0.00125 -0.027759375 3.27870119417e-25
382 1 -0.023034375 -0.00125 -0.026578125 4.9485397412e-13
383 1 -0.023034375 -0.00125 -0.025396875 2.62831796261e-11
384 1 -0.023034375 -0.00125 -0.024215625 6.811401557e-12
385 1 -0.023034375 -0.00125 -0.023034375 6.72261303548e-07
386 1 -0.023034375 -0.00125 -0.021853125 5.88424492829e-07
387 1 -0.023034375 -0.00125 -0.020671875 1.94890479141e-05
388 1 -0.023034375 -0.00125 -0.019490625 0.00158362668713
389 1 -0.023034375 -0.00125 -0.018309375 0.000184055279808
390 1 -0.023034375 -0.00125 -0.017128125 0.00845968584144
391 1 -0.023034375 -0.00125 -0.015946875 0.0291495867981
392 1 -0.023034375 -0.00125 -0.014765625 0.0277344839534
393 1 -0.023034375 -0.00125 -0.013584375 0.0171477923554
394 1 -0.023034375 -0.00125 -0.012403125 0.0183589812139
395 1 -0.023034375 -0.00125 -0.011221875 0.0048403171532
396 1 -0.023034375 -0.00125 -0.010040625 0.0112847612983
397 1 -0.023034375 -0.00125 -0.008859375 0.0226019741415
398 1 -0.023034375 -0.00125 -0.007678125 0.0105392705393
399 1 -0.023034375 -0.00125 -0.006496875 0.0105775555414
400 1 -0.023034375 -0.00125 -0.005315625 0.0174810614902
401 1 -0.023034375 -0.00125 -0.004134375 0.00510134902311
402 1 -0.023034375 -0.00125 -0.002953125 0.00727300460028
403 1 -0.023034375 -0.00125 -0.001771875 0.0225209716893
404 1 -0.023034375 -0.00125 -0.000590625 0.0193445829009
405 1 -0.023034375 -0.00125 0.000590625 0.0588036357803
406 1 -0.023034375 -0.00125 0.001771875 0.0151083675873
407 1 -0.023034375 -0.00125 0.002953125 0.0219678307527
408 1 -0.023034375 -0.00125 0.004134375 0.0142298296753
409 1 -0.023034375 -0.00125 0.005315625 0.00798000081923
410 1 -0.023034375 -0.00125 0.006496875 0.0149014610079
411 1 -0.023034375 -0.00125 0.007678125 0.0166029991821
412 1 -0.023034375 -0.00125 0.008859375 0.00316104555588
413 1 -0.023034375 -0.00125 0.010040625 0.00089214952671
414 1 -0.023034375 -0.00125 0.011221875 0.000830383591581
415 1 -0.023034375 -0.00125 0.012403125 0.00081838575238
416 1 -0.023034375 -0.00125 0.013584375 0.00105351537859
417 1 -0.023034375 -0.00125 0.014765625 0.000813169026099
418 1 -0.023034375 -0.00125 0.015946875 0.00448326950027
419 1 -0.023034375 -0.00125 0.017128125 0.00542191097979
420 1 -0.023034375 -0.00125 0.018309375 0.0214822509006
421 1 -0.023034375 -0.00125 0.019490625 0.0133818225818
422 1 -0.023034375 -0.00125 0.020671875 0.0408640267113
423 1 -0.023034375 -0.00125 0.021853125 0.0346722931404
424 1 -0.023034375 -0.00125 0.023034375 0.0133843668548
425 1 -0.023034375 -0.00125 0.024215625 0.00146389894236
426 1 -0.023034375 -0.00125 0.025396875 5.56801070495e-05
427 1 -0.023034375 -0.00125 0.026578125 8.55809985055e-05
428 1 -0.023034375 -0.00125 0.027759375 0.000127762357638
429 1 -0.021853125 -0.00125 -0.028940625 1.6907324076e-10
430 1 -0.021853125 -0.00125 -0.027759375 5.15104576833e-08
431 1 -0.021853125 -0.00125 -0.026578125 8.30274908199e-13
432 1 -0.021853125 -0.00125 -0.025396875 5.26571820538e-09
433 1 -0.021853125 -0.00125 -0.024215625 7.99346042303e-07
434 1 -0.021853125 -0.00125 -0.023034375 3.42623772935e-06
435 1 -0.021853125 -0.00125 -0.021853125 1.97489744081e-06
436 1 -0.021853125 -0.00125 -0.020671875 0.00013535973938
437 1 -0.021853125 -0.00125 -0.019490625 0.00164787124732
438 1 -0.021853125 -0.00125 -0.018309375 0.00227091663705
439 1 -0.021853125 -0.00125 -0.017128125 0.0160844575305
440 1 -0.021853125 -0.00125 -0.015946875 0.0564103521164
441 1 -0.021853125 -0.00125 -0.014765625 0.0359068456978
442 1 -0.021853125 -0.00125 -0.013584375 0.0648680857488
443 1 -0.021853125 -0.00125 -0.012403125 0.0673442443668
444 1 -0.021853125 -0.00125 -0.011221875 0.0362901234922
445 1 -0.021853125 -0.00125 -0.010040625 0.0192362869425
446 1 -0.021853125 -0.00125 -0.008859375 0.0287495112741
447 1 -0.021853125 -0.00125 -0.007678125 0.0413347276024
448 1 -0.021853125 -0.00125 -0.006496875 0.0147710819
449 1 -0.021853125 -0.00125 -0.005315625 0.0264607000259
450 1 -0.021853125 -0.00125 -0.004134375 0.0138107978472
451 1 -0.021853125 -0.00125 -0.002953125 0.024478333713
452 1 -0.021853125 -0.00125 -0.001771875 0.0347493858761
453 1 -0.021853125 -0.00125 -0.000590625 0.0540979295553
454 1 -0.021853125 -0.00125 0.000590625 0.0346529863102
455 1 -0.021853125 -0.00125 0.001771875 0.0322930244422
456 1 -0.021853125 -0.00125 0.002953125 0.0589562868326
457 1 -0.021853125 -0.00125 0.004134375 0.0448291754834
458 1 -0.021853125 -0.00125 0.005315625 0.0392259559375
459 1 -0.021853125 -0.00125 0.006496875 0.0204296867131
460 1 -0.021853125 -0.00125 0.007678125 0.00725847719136
461 1 -0.021853125 -0.00125 0.008859375 0.014980593172
462 1 -0.021853125 -0.00125 0.010040625 0.00831246299754
463 1 -0.021853125 -0.00125 0.011221875 0.0075646854714
464 1 -0.021853125 -0.00125 0.012403125 0.00523093822133
465 1 -0.021853125 -0.00125 0.013584375 0.0057652953157
466 1 -0.021853125 -0.00125 0.014765625 0.00898250823096
467 1 -0.021853125 -0.00125 0.015946875 0.0161345619325
468 1 -0.021853125 -0.00125 0.017128125 0.0257040920865
469 1 -0.021853125 -0.00125 0.018309375 0.0399499340427
470 1 -0.021853125 -0.00125 0.019490625 0.0236289285917
471 1 -0.021853125 -0.00125 0.020671875 0.0404897499328
472 1 -0.021853125 -0.00125 0.021853125 0.033940356459
473 1 -0.021853125 -0.00125 0.023034375 0.0100133365106
474 1 -0.021853125 -0.00125 0.024215625 0.00331677861788
475 1 -0.021853125 -0.00125 0.025396875 0.000786109600253
476 1 -0.021853125 -0.00125 0.026578125 0.000156003592529
477 1 -0.021853125 -0.00125 0.027759375 0.00360920567861
478 1 -0.021853125 -0.00125 0.028940625 0.0020977888873
479 1 -0.020671875 -0.00125 -0.030121875 6.77177906705e-22
480 1 -0.020671875 -0.00125 -0.028940625 2.24173851216e-18
481 1 -0.020671875 -0.00125 -0.027759375 1.146374229e-14
482 1 -0.020671875 -0.00125 -0.026578125 7.93044112113e-11
483 1 -0.020671875 -0.00125 -0.025396875 5.76458187182e-11
484 1 -0.020671875 -0.00125 -0.024215625 3.4889813086e-08
485 1 -0.020671875 -0.00125 -0.023034375 6.09141345462e-05
486 1 -0.020671875 -0.00125 -0.021853125 0.00015447355032
487 1 -0.020671875 -0.00125 -0.020671875 0.00136192778339
488 1 -0.020671875 -0.00125 -0.019490625 0.0112750896805
489 1 -0.020671875 -0.00125 -0.018309375 0.0108530661999
490 1 -0.020671875 -0.00125 -0.017128125 0.0473923841837
491 1 -0.020671875 -0.00125 -0.015946875 0.0796570562985
492 1 -0.020671875 -0.00125 -0.014765625 0.100931705251
493 1 -0.020671875 -0.00125 -0.013584375 0.117340650824
494 1 -0.020671875 -0.00125 -0.012403125 0.101579838165
495 1 -0.020671875 -0.00125 -0.011221875 0.118526213013
496 1 -0.020671875 -0.00125 -0.010040625 0.0624775733007
497 1 -0.020671875 -0.00125 -0.008859375 0.0665964692217
498 1 -0.020671875 -0.00125 -0.007678125 0.0405639429225
499 1 -0.020671875 -0.00125 -0.006496875 0.0197194185663
500 1 -0.020671875 -0.00125 -0.005315625 0.0349000655171
501 1 -0.020671875 -0.00125 -0.004134375 0.0233341819312
502 1 -0.020671875 -0.00125 -0.002953125 0.033882738491
503 1 -0.020671875 -0.00125 -0.001771875 0.0597566109267
504 1 -0.020671875 -0.00125 -0.000590625 0.0501309881343
505 1 -0.020671875 -0.00125 0.000590625 0.0630215262614
506 1 -0.020671875 -0.00125 0.001771875 0.0662126875955
507 1 -0.020671875 -0.00125 0.002953125 0.0430563042213
508 1 -0.020671875 -0.00125 0.004134375 0.0643563811513
509 1 -0.020671875 -0.00125 0.005315625 0.0815906525796
510 1 -0.020671875 -0.00125 0.006496875 0.0382237922258
511 1 -0.020671875 -0.00125 0.007678125 0.0263407044963
512 1 -0.020671875 -0.00125 0.008859375 0.0161978359501
513 1 -0.020671875 -0.00125 0.010040625 0.0127124149826
514 1 -0.020671875 -0.00125 0.011221875 0.00519061990299
515 1 -0.020671875 -0.00125 0.012403125 0.0254325123912
516 1 -0.020671875 -0.00125 0.013584375 0.0260161743322