ITEM: TIMESTEP
0
ITEM: NUMBER OF ATOMS
3080
ITEM: BOX BOUNDS ss ss ss
-3.7007399999999996e-02 3.7007399999999996e-02
-2.0002499999999999e-03 2.5000000000000004e-07
-3.7007399999999996e-02 3.7007399999999996e-02
ITEM: ATOMS id type x y z c_1
0 1 -0.037209375 -0.00125 -0.000590625 0.123372972094
1 1 -0.036028125 -0.00125 -0.007678125 0.00363229580441
2 1 -0.036028125 -0.00125 -0.006496875 0.000604620500956
3 1 -0.036028125 -0.00125 -0.005315625 6.14262020603e-05
4 1 -0.036028125 -0.00125 -0.004134375 0.00019450633896
5 1 -0.036028125 -0.00125 -0.002953125 0.00634670654684
6 1 -0.036028125 -0.00125 -0.001771875 0.0123208829492
7 1 -0.036028125 -0.00125 -0.000590625 0.0319678025028
8 1 -0.036028125 -0.00125 0.000590625 0.0746597046475
9 1 -0.036028125 -0.00125 0.001771875 0.227246958769
10 1 -0.036028125 -0.00125 0.002953125 0.0843689369006
11 1 -0.036028125 -0.00125 0.004134375 0.0384166138182
12 1 -0.036028125 -0.00125 0.005315625 0.00826580182101
13 1 -0.036028125 -0.00125 0.006496875 0.00443610575763
14 1 -0.036028125 -0.00125 0.007678125 0.0135509964355
15 1 -0.034846875 -0.00125 -0.011221875 0.0137310479461
16 1 -0.034846875 -0.00125 -0.010040625 0.0321124714564
17 1 -0.034846875 -0.00125 -0.008859375 0.138733894602
18 1 -0.034846875 -0.00125 -0.007678125 0.00132488531899
19 1 -0.034846875 -0.00125 -0.006496875 0.000186040289706
20 1 -0.034846875 -0.00125 -0.005315625 0.000188981058183
21 1 -0.034846875 -0.00125 -0.004134375 0.00157894961495
22 1 -0.034846875 -0.00125 -0.002953125 0.00923116655256
23 1 -0.034846875 -0.00125 -0.001771875 0.0116776792235
24 1 -0.034846875 -0.00125 -0.000590625 0.081419563982
25 1 -0.034846875 -0.00125 0.000590625 0.199980006845
26 1 -0.034846875 -0.00125 0.001771875 0.318767975968
27 1 -0.034846875 -0.00125 0.002953125 0.211986426868
28 1 -0.034846875 -0.00125 0.004134375 0.0668380287895
29 1 -0.034846875 -0.00125 0.005315625 0.00745992401084
30 1 -0.034846875 -0.00125 0.006496875 0.000751653764805
31 1 -0.034846875 -0.00125 0.007678125 0.0463679232256
32 1 -0.034846875 -0.00125 0.008859375 0.202792635677
33 1 -0.034846875 -0.00125 0.010040625 0.068931358127
34 1 -0.034846875 -0.00125 0.011221875 0.0628010486075
35 1 -0.033665625 -0.00125 -0.013584375 0.00301200479346
36 1 -0.033665625 -0.00125 -0.012403125 0.0685097339687
37 1 -0.033665625 -0.00125 -0.011221875 0.0409767952759
38 1 -0.033665625 -0.00125 -0.010040625 0.075535130677
39 1 -0.033665625 -0.00125 -0.008859375 0.088935034982
40 1 -0.033665625 -0.00125 -0.007678125 0.00751003633391
41 1 -0.033665625 -0.00125 -0.006496875 0.00471737482918
42 1 -0.033665625 -0.00125 -0.005315625 0.00424698108188
43 1 -0.033665625 -0.00125 -0.004134375 0.0199967167452
44 1 -0.033665625 -0.00125 -0.002953125 0.0331146550652
45 1 -0.033665625 -0.00125 -0.001771875 0.0560108524186
46 1 -0.033665625 -0.00125 -0.000590625 0.12297680041
47 1 -0.033665625 -0.00125 0.000590625 0.230730558388
48 1 -0.033665625 -0.00125 0.001771875 0.302073788519
49 1 -0.033665625 -0.00125 0.002953125 0.320795404709
50 1 -0.033665625 -0.00125 0.004134375 0.229786244005
51 1 -0.033665625 -0.00125 0.005315625 0.121716320283
52 1 -0.033665625 -0.00125 0.006496875 0.016315625578
53 1 -0.033665625 -0.00125 0.007678125 0.120187458159
54 1 -0.033665625 -0.00125 0.008859375 0.239257843184
55 1 -0.033665625 -0.00125 0.010040625 0.1593839918
56 1 -0.033665625 -0.00125 0.011221875 0.171603058162
57 1 -0.033665625 -0.00125 0.012403125 0.223508053706
58 1 -0.033665625 -0.00125 0.013584375 0.0395283398908
59 1 -0.032484375 -0.00125 -0.018309375 0.000268360795872
60 1 -0.032484375 -0.00125 -0.017128125 0.0164721978116
61 1 -0.032484375 -0.00125 -0.015946875 0.00410817350707
62 1 -0.032484375 -0.00125 -0.014765625 0.0111781537435
63 1 -0.032484375 -0.00125 -0.013584375 0.00598661017704
64 1 -0.032484375 -0.00125 -0.012403125 0.0660138568043
65 1 -0.032484375 -0.00125 -0.011221875 0.11785574896
66 1 -0.032484375 -0.00125 -0.010040625 0.141311913259
67 1 -0.032484375 -0.00125 -0.008859375 0.123549400608
68 1 -0.032484375 -0.00125 -0.007678125 0.0696333457171
69 1 -0.032484375 -0.00125 -0.006496875 0.0197513346327
70 1 -0.032484375 -0.00125 -0.005315625 0.0668622653449
71 1 -0.032484375 -0.00125 -0.004134375 0.0897364187633
72 1 -0.032484375 -0.00125 -0.002953125 0.0753998243951
73 1 -0.032484375 -0.00125 -0.001771875 0.169488511035
74 1 -0.032484375 -0.00125 -0.000590625 0.240080311112
75 1 -0.032484375 -0.00125 0.000590625 0.317762804414
76 1 -0.032484375 -0.00125 0.001771875 0.17176112402
77 1 -0.032484375 -0.00125 0.002953125 0.192206416635
78 1 -0.032484375 -0.00125 0.004134375 0.123939143542
79 1 -0.032484375 -0.00125 0.005315625 0.124509206756
80 1 -0.032484375 -0.00125 0.006496875 0.0620019371882
81 1 -0.032484375 -0.00125 0.007678125 0.183493454384
82 1 -0.032484375 -0.00125 0.008859375 0.246120807596
83 1 -0.032484375 -0.00125 0.010040625 0.249460059627
84 1 -0.032484375 -0.00125 0.011221875 0.357262961893
85 1 -0.032484375 -0.00125 0.012403125 0.311189756849
86 1 -0.032484375 -0.00125 0.013584375 0.0611705161257
87 1 -0.032484375 -0.00125 0.014765625 0.13714988091
88 1 -0.032484375 -0.00125 0.015946875 0.153649281775
89 1 -0.032484375 -0.00125 0.017128125 0.0786334146235
90 1 -0.032484375 -0.00125 0.018309375 0.0292691039157
91 1 -0.031303125 -0.00125 -0.019490625 0.000240565181512
92 1 -0.031303125 -0.00125 -0.018309375 0.00294509861249
93 1 -0.031303125 -0.00125 -0.017128125 0.0093920507488
94 1 -0.031303125 -0.00125 -0.015946875 0.0126386124101
95 1 -0.031303125 -0.00125 -0.014765625 0.0144481156398
96 1 -0.031303125 -0.00125 -0.013584375 0.012602656444
97 1 -0.031303125 -0.00125 -0.012403125 0.073897983808
98 1 -0.031303125 -0.00125 -0.011221875 0.107614682864
99 1 -0.031303125 -0.00125 -0.010040625 0.149319270194
100 1 -0.031303125 -0.00125 -0.008859375 0.119140465736
101 1 -0.031303125 -0.00125 -0.007678125 0.101231874017
102 1 -0.031303125 -0.00125 -0.006496875 0.0775310469112
103 1 -0.031303125 -0.00125 -0.005315625 0.124449594344
104 1 -0.031303125 -0.00125 -0.004134375 0.103092776243
105 1 -0.031303125 -0.00125 -0.002953125 0.134869374604
106 1 -0.031303125 -0.00125 -0.001771875 0.176952497247
107 1 -0.031303125 -0.00125 -0.000590625 0.182129010305
108 1 -0.031303125 -0.00125 0.000590625 0.129517696213
109 1 -0.031303125 -0.00125 0.001771875 0.0897240248004
110 1 -0.031303125 -0.00125 0.002953125 0.0869019681441
111 1 -0.031303125 -0.00125 0.004134375 0.0549921305069
112 1 -0.031303125 -0.00125 0.005315625 0.0470380990649
113 1 -0.031303125 -0.00125 0.006496875 0.0489266823869
114 1 -0.031303125 -0.00125 0.007678125 0.105077130919
115 1 -0.031303125 -0.00125 0.008859375 0.192743064094
116 1 -0.031303125 -0.00125 0.010040625 0.266407899299
117 1 -0.031303125 -0.00125 0.011221875 0.3402939981
118 1 -0.031303125 -0.00125 0.012403125 0.340952893458
119 1 -0.031303125 -0.00125 0.013584375 0.176906818358
120 1 -0.031303125 -0.00125 0.014765625 0.207854665336
121 1 -0.031303125 -0.00125 0.015946875 0.195185661159
122 1 -0.031303125 -0.00125 0.017128125 0.0913596581083
123 1 -0.031303125 -0.00125 0.018309375 0.0376206486365
124 1 -0.031303125 -0.00125 0.019490625 0.00607628605308
125 1 -0.030121875 -0.00125 -0.020671875 7.24974465838e-07
126 1 -0.030121875 -0.00125 -0.019490625 5.36322119791e-05
127 1 -0.030121875 -0.00125 -0.018309375 0.00145966818153
128 1 -0.030121875 -0.00125 -0.017128125 0.00786192938101
129 1 -0.030121875 -0.00125 -0.015946875 0.0177832276209
130 1 -0.030121875 -0.00125 -0.014765625 0.019813436986
131 1 -0.030121875 -0.00125 -0.013584375 0.0563682453368
132 1 -0.030121875 -0.00125 -0.012403125 0.11183668431
133 1 -0.030121875 -0.00125 -0.011221875 0.178300005209
134 1 -0.030121875 -0.00125 -0.010040625 0.171819123509
135 1 -0.030121875 -0.00125 -0.008859375 0.160300742797
136 1 -0.030121875 -0.00125 -0.007678125 0.165045999967
137 1 -0.030121875 -0.00125 -0.006496875 0.153996020106
138 1 -0.030121875 -0.00125 -0.005315625 0.150600216915
139 1 -0.030121875 -0.00125 -0.004134375 0.194185165935
140 1 -0.030121875 -0.00125 -0.002953125 0.167328225618
141 1 -0.030121875 -0.00125 -0.001771875 0.20598483329
142 1 -0.030121875 -0.00125 -0.000590625 0.158671562634
143 1 -0.030121875 -0.00125 0.000590625 0.114935727514
144 1 -0.030121875 -0.00125 0.001771875 0.0594430602781
145 1 -0.030121875 -0.00125 0.002953125 0.0617178596523
146 1 -0.030121875 -0.00125 0.004134375 0.024736808349
147 1 -0.030121875 -0.00125 0.005315625 0.0306857000119
148 1 -0.030121875 -0.00125 0.006496875 0.0385296949624
149 1 -0.030121875 -0.00125 0.007678125 0.0991297244494
150 1 -0.030121875 -0.00125 0.008859375 0.145180731122
151 1 -0.030121875 -0.00125 0.010040625 0.216652757726
152 1 -0.030121875 -0.00125 0.011221875 0.298302936275
153 1 -0.030121875 -0.00125 0.012403125 0.368178653454
154 1 -0.030121875 -0.00125 0.013584375 0.251233584513
155 1 -0.030121875 -0.00125 0.014765625 0.301951574188
156 1 -0.030121875 -0.00125 0.015946875 0.245439086983
157 1 -0.030121875 -0.00125 0.017128125 0.154369645154
158 1 -0.030121875 -0.00125 0.018309375 0.0771380970032
159 1 -0.030121875 -0.00125 0.019490625 0.0174746525512
160 1 -0.030121875 -0.00125 0.020671875 0.000445786405717
161 1 -0.028940625 -0.00125 -0.021853125 0.00578852176443
162 1 -0.028940625 -0.00125 -0.020671875 0.00113069743546
163 1 -0.028940625 -0.00125 -0.019490625 0.000613364279316
164 1 -0.028940625 -0.00125 -0.018309375 0.00437061887924
165 1 -0.028940625 -0.00125 -0.017128125 0.0119364472485
166 1 -0.028940625 -0.00125 -0.015946875 0.0221207161165
167 1 -0.028940625 -0.00125 -0.014765625 0.0745344530096
168 1 -0.028940625 -0.00125 -0.013584375 0.0718007182101
169 1 -0.028940625 -0.00125 -0.012403125 0.103100704026
170 1 -0.028940625 -0.00125 -0.011221875 0.190088854447
171 1 -0.028940625 -0.00125 -0.010040625 0.18042940051
172 1 -0.028940625 -0.00125 -0.008859375 0.150910244339
173 1 -0.028940625 -0.00125 -0.007678125 0.138948604525
174 1 -0.028940625 -0.00125 -0.006496875 0.157011237829
175 1 -0.028940625 -0.00125 -0.005315625 0.126802758379
176 1 -0.028940625 -0.00125 -0.004134375 0.215211350515
177 1 -0.028940625 -0.00125 -0.002953125 0.196397064814
178 1 -0.028940625 -0.00125 -0.001771875 0.161413527092
179 1 -0.028940625 -0.00125 -0.000590625 0.157730813776
180 1 -0.028940625 -0.00125 0.000590625 0.0765114994776
181 1 -0.028940625 -0.00125 0.001771875 0.0308559878335
182 1 -0.028940625 -0.00125 0.002953125 0.0354870044301
183 1 -0.028940625 -0.00125 0.004134375 0.015599756897
184 1 -0.028940625 -0.00125 0.005315625 0.0387677054157
185 1 -0.028940625 -0.00125 0.006496875 0.0678185268913
186 1 -0.028940625 -0.00125 0.007678125 0.067581118488
187 1 -0.028940625 -0.00125 0.008859375 0.0769390621264
188 1 -0.028940625 -0.00125 0.010040625 0.157685945223
189 1 -0.028940625 -0.00125 0.011221875 0.280975389717
190 1 -0.028940625 -0.00125 0.012403125 0.237868004907
191 1 -0.028940625 -0.00125 0.013584375 0.187639333266
192 1 -0.028940625 -0.00125 0.014765625 0.183723925087
193 1 -0.028940625 -0.00125 0.015946875 0.159785455547
194 1 -0.028940625 -0.00125 0.017128125 0.162044617305
195 1 -0.028940625 -0.00125 0.018309375 0.126939566775
196 1 -0.028940625 -0.00125 0.019490625 0.0264758507888
197 1 -0.028940625 -0.00125 0.020671875 0.00881055444048
198 1 -0.028940625 -0.00125 0.021853125 0.0415826674019
199 1 -0.027759375 -0.00125 -0.024215625 6.92188517414e-13
200 1 -0.027759375 -0.00125 -0.023034375 0.000478019154645
201 1 -0.027759375 -0.00125 -0.021853125 0.00344924535752
202 1 -0.027759375 -0.00125 -0.020671875 0.00162952175273
203 1 -0.027759375 -0.00125 -0.019490625 0.00114954455316
204 1 -0.027759375 -0.00125 -0.018309375 0.0246131268342
205 1 -0.027759375 -0.00125 -0.017128125 0.0509631109281
206 1 -0.027759375 -0.00125 -0.015946875 0.0307240330015
207 1 -0.027759375 -0.00125 -0.014765625 0.0797973009647
208 1 -0.027759375 -0.00125 -0.013584375 0.0830098310655
209 1 -0.027759375 -0.00125 -0.012403125 0.164072912902
210 1 -0.027759375 -0.00125 -0.011221875 0.249025551905
211 1 -0.027759375 -0.00125 -0.010040625 0.144720099206
212 1 -0.027759375 -0.00125 -0.008859375 0.196750440969
213 1 -0.027759375 -0.00125 -0.007678125 0.205686231228
214 1 -0.027759375 -0.00125 -0.006496875 0.2507979794
215 1 -0.027759375 -0.00125 -0.005315625 0.251580267704
216 1 -0.027759375 -0.00125 -0.004134375 0.259969649434
217 1 -0.027759375 -0.00125 -0.002953125 0.217100697705
218 1 -0.027759375 -0.00125 -0.001771875 0.270461626806
219 1 -0.027759375 -0.00125 -0.000590625 0.223658012618
220 1 -0.027759375 -0.00125 0.000590625 0.177853102039
221 1 -0.027759375 -0.00125 0.001771875 0.128384924788
222 1 -0.027759375 -0.00125 0.002953125 0.111776026657
223 1 -0.027759375 -0.00125 0.004134375 0.0558672282485
224 1 -0.027759375 -0.00125 0.005315625 0.114502046154
225 1 -0.027759375 -0.00125 0.006496875 0.123150047891
226 1 -0.027759375 -0.00125 0.007678125 0.173616500942
227 1 -0.027759375 -0.00125 0.008859375 0.149699321199
228 1 -0.027759375 -0.00125 0.010040625 0.186311548226
229 1 -0.027759375 -0.00125 0.011221875 0.281374642342
230 1 -0.027759375 -0.00125 0.012403125 0.208453936186
231 1 -0.027759375 -0.00125 0.013584375 0.199887442589
232 1 -0.027759375 -0.00125 0.014765625 0.218556665422
233 1 -0.027759375 -0.00125 0.015946875 0.110443875525
234 1 -0.027759375 -0.00125 0.017128125 0.20509760424
235 1 -0.027759375 -0.00125 0.018309375 0.159426593287
236 1 -0.027759375 -0.00125 0.019490625 0.0699803385463
237 1 -0.027759375 -0.00125 0.020671875 0.0527824507778
238 1 -0.027759375 -0.00125 0.021853125 0.0834389946285
239 1 -0.027759375 -0.00125 0.023034375 0.0143904047354
240 1 -0.027759375 -0.00125 0.024215625 4.19602522423e-06
241 1 -0.026578125 -0.00125 -0.026578125 1.39064890609e-05
242 1 -0.026578125 -0.00125 -0.025396875 2.21208100323e-12
243 1 -0.026578125 -0.00125 -0.024215625 4.17938022006e-14
244 1 -0.026578125 -0.00125 -0.023034375 1.4004005123e-06
245 1 -0.026578125 -0.00125 -0.021853125 0.00021464708976
246 1 -0.026578125 -0.00125 -0.020671875 0.00177370396474
247 1 -0.026578125 -0.00125 -0.019490625 0.0094403238135
248 1 -0.026578125 -0.00125 -0.018309375 0.0334024644103
249 1 -0.026578125 -0.00125 -0.017128125 0.0896368187311
250 1 -0.026578125 -0.00125 -0.015946875 0.119940035942
251 1 -0.026578125 -0.00125 -0.014765625 0.145102675087
252 1 -0.026578125 -0.00125 -0.013584375 0.161302179976
253 1 -0.026578125 -0.00125 -0.012403125 0.199252767754
254 1 -0.026578125 -0.00125 -0.011221875 0.217482992332
255 1 -0.026578125 -0.00125 -0.010040625 0.179513205803
256 1 -0.026578125 -0.00125 -0.008859375 0.210312475965
257 1 -0.026578125 -0.00125 -0.007678125 0.317193336481
258 1 -0.026578125 -0.00125 -0.006496875 0.39558557203
259 1 -0.026578125 -0.00125 -0.005315625 0.416571114967
260 1 -0.026578125 -0.00125 -0.004134375 0.430314198824
261 1 -0.026578125 -0.00125 -0.002953125 0.338228022328
262 1 -0.026578125 -0.00125 -0.001771875 0.312406584541
263 1 -0.026578125 -0.00125 -0.000590625 0.291367865608
264 1 -0.026578125 -0.00125 0.000590625 0.257271704324
265 1 -0.026578125 -0.00125 0.001771875 0.229380517911
266 1 -0.026578125 -0.00125 0.002953125 0.207537929297
267 1 -0.026578125 -0.00125 0.004134375 0.170450425669
268 1 -0.026578125 -0.00125 0.005315625 0.14957602563
269 1 -0.026578125 -0.00125 0.006496875 0.199529936918
270 1 -0.026578125 -0.00125 0.007678125 0.227578331391
271 1 -0.026578125 -0.00125 0.008859375 0.191644844706
272 1 -0.026578125 -0.00125 0.010040625 0.265532098909
273 1 -0.026578125 -0.00125 0.011221875 0.274693309771
274 1 -0.026578125 -0.00125 0.012403125 0.271063868628
275 1 -0.026578125 -0.00125 0.013584375 0.336918499151
276 1 -0.026578125 -0.00125 0.014765625 0.251087398707
277 1 -0.026578125 -0.00125 0.015946875 0.15624405331
278 1 -0.026578125 -0.00125 0.017128125 0.183326894017
279 1 -0.026578125 -0.00125 0.018309375 0.160356740525
280 1 -0.026578125 -0.00125 0.019490625 0.10034488452
281 1 -0.026578125 -0.00125 0.020671875 0.0786374907024
282 1 -0.026578125 -0.00125 0.021853125 0.0307491176101
283 1 -0.026578125 -0.00125 0.023034375 0.0117385954625
284 1 -0.026578125 -0.00125 0.024215625 0.0013294385049
285 1 -0.026578125 -0.00125 0.025396875 4.09529775893e-05
286 1 -0.026578125 -0.00125 0.026578125 0.00162275715468
287 1 -0.025396875 -0.00125 -0.026578125 2.52913212465e-07
288 1 -0.025396875 -0.00125 -0.025396875 7.14219845274e-10
289 1 -0.025396875 -0.00125 -0.024215625 3.34631057676e-07
290 1 -0.025396875 -0.00125 -0.023034375 7.83453065661e-06
291 1 -0.025396875 -0.00125 -0.021853125 0.000478850831951
292 1 -0.025396875 -0.00125 -0.020671875 0.00285479750002
293 1 -0.025396875 -0.00125 -0.019490625 0.00739027495604
294 1 -0.025396875 -0.00125 -0.018309375 0.0759424928175
295 1 -0.025396875 -0.00125 -0.017128125 0.120844037006
296 1 -0.025396875 -0.00125 -0.015946875 0.171251161249
297 1 -0.025396875 -0.00125 -0.014765625 0.16520768938
298 1 -0.025396875 -0.00125 -0.013584375 0.248404129684
299 1 -0.025396875 -0.00125 -0.012403125 0.303295110593
300 1 -0.025396875 -0.00125 -0.011221875 0.255982663046
301 1 -0.025396875 -0.00125 -0.010040625 0.262392435397
302 1 -0.025396875 -0.00125 -0.008859375 0.31497527353
303 1 -0.025396875 -0.00125 -0.007678125 0.346740493833
304 1 -0.025396875 -0.00125 -0.006496875 0.46094350817
305 1 -0.025396875 -0.00125 -0.005315625 0.427797574216
306 1 -0.025396875 -0.00125 -0.004134375 0.434356919945
307 1 -0.025396875 -0.00125 -0.002953125 0.40047309893
308 1 -0.025396875 -0.00125 -0.001771875 0.371293299906
309 1 -0.025396875 -0.00125 -0.000590625 0.274552659882
310 1 -0.025396875 -0.00125 0.000590625 0.388350570994
311 1 -0.025396875 -0.00125 0.001771875 0.235926550729
312 1 -0.025396875 -0.00125 0.002953125 0.273543201816
313 1 -0.025396875 -0.00125 0.004134375 0.313415184125
314 1 -0.025396875 -0.00125 0.005315625 0.244905095594
315 1 -0.025396875 -0.00125 0.006496875 0.315950318651
316 1 -0.025396875 -0.00125 0.007678125 0.314563432287
317 1 -0.025396875 -0.00125 0.008859375 0.269018527682
318 1 -0.025396875 -0.00125 0.010040625 0.314839121753
319 1 -0.025396875 -0.00125 0.011221875 0.340779839715
320 1 -0.025396875 -0.00125 0.012403125 0.371262309545
321 1 -0.025396875 -0.00125 0.013584375 0.39980632205
322 1 -0.025396875 -0.00125 0.014765625 0.291598340096
323 1 -0.025396875 -0.00125 0.015946875 0.270454121935
324 1 -0.025396875 -0.00125 0.017128125 0.242080024314
325 1 -0.025396875 -0.00125 0.018309375 0.23447627027
326 1 -0.025396875 -0.00125 0.019490625 0.116880758274
327 1 -0.025396875 -0.00125 0.020671875 0.101904861612
328 1 -0.025396875 -0.00125 0.021853125 0.0976735401237
329 1 -0.025396875 -0.00125 0.023034375 0.0448526607759
330 1 -0.025396875 -0.00125 0.024215625 0.0126225192057
331 1 -0.025396875 -0.00125 0.025396875 0.00222931746999
332 1 -0.025396875 -0.00125 0.026578125 0.000143400760239
333 1 -0.024215625 -0.00125 -0.027759375 4.27027286839e-05
334 1 -0.024215625 -0.00125 -0.026578125 0.000302061363012
335 1 -0.024215625 -0.00125 -0.025396875 3.14351476936e-05
336 1 -0.024215625 -0.00125 -0.024215625 4.46122498206e-05
337 1 -0.024215625 -0.00125 -0.023034375 0.000288181096108
338 1 -0.024215625 -0.00125 -0.021853125 0.00293624995624
339 1 -0.024215625 -0.00125 -0.020671875 0.0109910113186
340 1 -0.024215625 -0.00125 -0.019490625 0.011968212262
341 1 -0.024215625 -0.00125 -0.018309375 0.0541040459956
342 1 -0.024215625 -0.00125 -0.017128125 0.117294766251
343 1 -0.024215625 -0.00125 -0.015946875 0.186632244908
344 1 -0.024215625 -0.00125 -0.014765625 0.224959768482
345 1 -0.024215625 -0.00125 -0.013584375 0.253894604671
346 1 -0.024215625 -0.00125 -0.012403125 0.30643637001
347 1 -0.024215625 -0.00125 -0.011221875 0.333097527946
348 1 -0.024215625 -0.00125 -0.010040625 0.283391904495
349 1 -0.024215625 -0.00125 -0.008859375 0.300567975027
350 1 -0.024215625 -0.00125 -0.007678125 0.409421378979
351 1 -0.024215625 -0.00125 -0.006496875 0.417925410463
352 1 -0.024215625 -0.00125 -0.005315625 0.469756337446
353 1 -0.024215625 -0.00125 -0.004134375 0.472261639536
354 1 -0.024215625 -0.00125 -0.002953125 0.464961506551
355 1 -0.024215625 -0.00125 -0.001771875 0.401807897901
356 1 -0.024215625 -0.00125 -0.000590625 0.309135994098
357 1 -0.024215625 -0.00125 0.000590625 0.306339737578
358 1 -0.024215625 -0.00125 0.001771875 0.333221554916
359 1 -0.024215625 -0.00125 0.002953125 0.383930820975
360 1 -0.024215625 -0.00125 0.004134375 0.427185065555
361 1 -0.024215625 -0.00125 0.005315625 0.429899860026
362 1 -0.024215625 -0.00125 0.006496875 0.358339096791
363 1 -0.024215625 -0.00125 0.007678125 0.370259471501
364 1 -0.024215625 -0.00125 0.008859375 0.301963776935
365 1 -0.024215625 -0.00125 0.010040625 0.393752560183
366 1 -0.024215625 -0.00125 0.011221875 0.443523738482
367 1 -0.024215625 -0.00125 0.012403125 0.478611627511
368 1 -0.024215625 -0.00125 0.013584375 0.465047736103
369 1 -0.024215625 -0.00125 0.014765625 0.458402467193
370 1 -0.024215625 -0.00125 0.015946875 0.391843201133
371 1 -0.024215625 -0.00125 0.017128125 0.359101217418
372 1 -0.024215625 -0.00125 0.018309375 0.330512502638
373 1 -0.024215625 -0.00125 0.019490625 0.181642635659
374 1 -0.024215625 -0.00125 0.020671875 0.12632951623
375 1 -0.024215625 -0.00125 0.021853125 0.0934877199962
376 1 -0.024215625 -0.00125 0.023034375 0.0539962871483
377 1 -0.024215625 -0.00125 0.024215625 0.0403001749961
378 1 -0.024215625 -0.00125 0.025396875 0.0445263855084
379 1 -0.024215625 -0.00125 0.026578125 0.0144026825338
380 1 -0.024215625 -0.00125 0.027759375 0.000133853666784
381 1 -0.023034375 -0.00125 -0.027759375 0.0267895101561
382 1 -0.023034375 -0.00125 -0.026578125 0.0113937101299
383 1 -0.023034375 -0.00125 -0.025396875 0.0157413856635
384 1 -0.023034375 -0.00125 -0.024215625 0.000548053424015
385 1 -0.023034375 -0.00125 -0.023034375 0.000603672417
386 1 -0.023034375 -0.00125 -0.021853125 0.001330588234
387 1 -0.023034375 -0.00125 -0.020671875 0.0186958125355
388 1 -0.023034375 -0.00125 -0.019490625 0.0439576382687
389 1 -0.023034375 -0.00125 -0.018309375 0.0490736557293
390 1 -0.023034375 -0.00125 -0.017128125 0.100724972419
391 1 -0.023034375 -0.00125 -0.015946875 0.145788647355
392 1 -0.023034375 -0.00125 -0.014765625 0.286459309089
393 1 -0.023034375 -0.00125 -0.013584375 0.296802361588
394 1 -0.023034375 -0.00125 -0.012403125 0.358827165483
395 1 -0.023034375 -0.00125 -0.011221875 0.380427359075
396 1 -0.023034375 -0.00125 -0.010040625 0.375183106992
397 1 -0.023034375 -0.00125 -0.008859375 0.34317368211
398 1 -0.023034375 -0.00125 -0.007678125 0.351850835129
399 1 -0.023034375 -0.00125 -0.006496875 0.347592283793
400 1 -0.023034375 -0.00125 -0.005315625 0.482082696283
401 1 -0.023034375 -0.00125 -0.004134375 0.49924012524
402 1 -0.023034375 -0.00125 -0.002953125 0.555661377437
403 1 -0.023034375 -0.00125 -0.001771875 0.492334309293
404 1 -0.023034375 -0.00125 -0.000590625 0.429780922745
405 1 -0.023034375 -0.00125 0.000590625 0.35150049364
406 1 -0.023034375 -0.00125 0.001771875 0.380427312314
407 1 -0.023034375 -0.00125 0.002953125 0.415710821452
408 1 -0.023034375 -0.00125 0.004134375 0.375018263734
409 1 -0.023034375 -0.00125 0.005315625 0.377580337575
410 1 -0.023034375 -0.00125 0.006496875 0.374071630242
411 1 -0.023034375 -0.00125 0.007678125 0.443082734096
412 1 -0.023034375 -0.00125 0.008859375 0.450587108923
413 1 -0.023034375 -0.00125 0.010040625 0.482474570868
414 1 -0.023034375 -0.00125 0.011221875 0.441926511469
415 1 -0.023034375 -0.00125 0.012403125 0.519250220194
416 1 -0.023034375 -0.00125 0.013584375 0.446004302235
417 1 -0.023034375 -0.00125 0.014765625 0.478335850214
418 1 -0.023034375 -0.00125 0.015946875 0.406953298842
419 1 -0.023034375 -0.00125 0.017128125 0.380110415407
420 1 -0.023034375 -0.00125 0.018309375 0.347282429058
421 1 -0.023034375 -0.00125 0.019490625 0.201380192912
422 1 -0.023034375 -0.00125 0.020671875 0.194737560928
423 1 -0.023034375 -0.00125 0.021853125 0.121443897652
424 1 -0.023034375 -0.00125 0.023034375 0.102474185186
425 1 -0.023034375 -0.00125 0.024215625 0.17522172845
426 1 -0.023034375 -0.00125 0.025396875 0.179353997716
427 1 -0.023034375 -0.00125 0.026578125 0.153150981102
428 1 -0.023034375 -0.00125 0.027759375 0.192166061912
429 1 -0.021853125 -0.00125 -0.028940625 0.0328828625501
430 1 -0.021853125 -0.00125 -0.027759375 0.236584545547
431 1 -0.021853125 -0.00125 -0.026578125 0.140299969554
432 1 -0.021853125 -0.00125 -0.025396875 0.0289292494134
433 1 -0.021853125 -0.00125 -0.024215625 0.0153157447455
434 1 -0.021853125 -0.00125 -0.023034375 0.0082935415178
435 1 -0.021853125 -0.00125 -0.021853125 0.00302953515545
436 1 -0.021853125 -0.00125 -0.020671875 0.0189288438239
437 1 -0.021853125 -0.00125 -0.019490625 0.0308642927308
438 1 -0.021853125 -0.00125 -0.018309375 0.0768679770148
439 1 -0.021853125 -0.00125 -0.017128125 0.146417446678
440 1 -0.021853125 -0.00125 -0.015946875 0.202589134933
441 1 -0.021853125 -0.00125 -0.014765625 0.233909525477
442 1 -0.021853125 -0.00125 -0.013584375 0.301896406984
443 1 -0.021853125 -0.00125 -0.012403125 0.32892225038
444 1 -0.021853125 -0.00125 -0.011221875 0.379054167135
445 1 -0.021853125 -0.00125 -0.010040625 0.382585088844
446 1 -0.021853125 -0.00125 -0.008859375 0.420462719623
447 1 -0.021853125 -0.00125 -0.007678125 0.38950622795
448 1 -0.021853125 -0.00125 -0.006496875 0.441487756867
449 1 -0.021853125 -0.00125 -0.005315625 0.443352832223
450 1 -0.021853125 -0.00125 -0.004134375 0.549242495784
451 1 -0.021853125 -0.00125 -0.002953125 0.581511981954
452 1 -0.021853125 -0.00125 -0.001771875 0.505043767027
453 1 -0.021853125 -0.00125 -0.000590625 0.523441510866
454 1 -0.021853125 -0.00125 0.000590625 0.500937765599
455 1 -0.021853125 -0.00125 0.001771875 0.430832404933
456 1 -0.021853125 -0.00125 0.002953125 0.426847218236
457 1 -0.021853125 -0.00125 0.004134375 0.45798232399
458 1 -0.021853125 -0.00125 0.005315625 0.45025179555
459 1 -0.021853125 -0.00125 0.006496875 0.417693788161
460 1 -0.021853125 -0.00125 0.007678125 0.449498968265
461 1 -0.021853125 -0.00125 0.008859375 0.524018531593
462 1 -0.021853125 -0.00125 0.010040625 0.565106230143
463 1 -0.021853125 -0.00125 0.011221875 0.54523500334
464 1 -0.021853125 -0.00125 0.012403125 0.480322748495
465 1 -0.021853125 -0.00125 0.013584375 0.444524274926
466 1 -0.021853125 -0.00125 0.014765625 0.445575230681
467 1 -0.021853125 -0.00125 0.015946875 0.403607230393
468 1 -0.021853125 -0.00125 0.017128125 0.363136720654
469 1 -0.021853125 -0.00125 0.018309375 0.310010989048
470 1 -0.021853125 -0.00125 0.019490625 0.277196266798
471 1 -0.021853125 -0.00125 0.020671875 0.175171376674
472 1 -0.021853125 -0.00125 0.021853125 0.144046696382
473 1 -0.021853125 -0.00125 0.023034375 0.110455150246
474 1 -0.021853125 -0.00125 0.024215625 0.223117953301
475 1 -0.021853125 -0.00125 0.025396875 0.353809346305
476 1 -0.021853125 -0.00125 0.026578125 0.427877894241
477 1 -0.021853125 -0.00125 0.027759375 0.395571256409
478 1 -0.021853125 -0.00125 0.028940625 0.233598277146
479 1 -0.020671875 -0.00125 -0.030121875 5.94334785539e-09
480 1 -0.020671875 -0.00125 -0.028940625 7.30735288569e-08
481 1 -0.020671875 -0.00125 -0.027759375 0.00214892891682
482 1 -0.020671875 -0.00125 -0.026578125 0.00392870329516
483 1 -0.020671875 -0.00125 -0.025396875 0.000306177150096
484 1 -0.020671875 -0.00125 -0.024215625 0.000114147899668
485 1 -0.020671875 -0.00125 -0.023034375 0.000443441368994
486 1 -0.020671875 -0.00125 -0.021853125 0.00367295248015
487 1 -0.020671875 -0.00125 -0.020671875 0.0143569283295
488 1 -0.020671875 -0.00125 -0.019490625 0.0492845956502
489 1 -0.020671875 -0.00125 -0.018309375 0.10717990917
490 1 -0.020671875 -0.00125 -0.017128125 0.134188037284
491 1 -0.020671875 -0.00125 -0.015946875 0.183092543442
492 1 -0.020671875 -0.00125 -0.014765625 0.227208405907
493 1 -0.020671875 -0.00125 -0.013584375 0.301764175062
494 1 -0.020671875 -0.00125 -0.012403125 0.304333768405
495 1 -0.020671875 -0.00125 -0.011221875 0.354983249124
496 1 -0.020671875 -0.00125 -0.010040625 0.349572100685
497 1 -0.020671875 -0.00125 -0.008859375 0.367658915629
498 1 -0.020671875 -0.00125 -0.007678125 0.420481019702
499 1 -0.020671875 -0.00125 -0.006496875 0.541348068261
500 1 -0.020671875 -0.00125 -0.005315625 0.591001658202
501 1 -0.020671875 -0.00125 -0.004134375 0.630332299098
502 1 -0.020671875 -0.00125 -0.002953125 0.673732925993
503 1 -0.020671875 -0.00125 -0.001771875 0.612513233221
504 1 -0.020671875 -0.00125 -0.000590625 0.677963617698
505 1 -0.020671875 -0.00125 0.000590625 0.589616387865
506 1 -0.020671875 -0.00125 0.001771875 0.642171282674
507 1 -0.020671875 -0.00125 0.002953125 0.585704321994
508 1 -0.020671875 -0.00125 0.004134375 0.566913322859
509 1 -0.020671875 -0.00125 0.005315625 0.445123643624
510 1 -0.020671875 -0.00125 0.006496875 0.60695143859
511 1 -0.020671875 -0.00125 0.007678125 0.546137076099
512 1 -0.020671875 -0.00125 0.008859375 0.592829294167
513 1 -0.020671875 -0.00125 0.010040625 0.641911774551
514 1 -0.020671875 -0.00125 0.011221875 0.657454649696
515 1 -0.020671875 -0.00125 0.012403125 0.553614981669
516 1 -0.020671875 -0.00125 0.013584375 0.480266057539
517 1 -0.020671875 -0.00125 0.014765625 0.446917637817
518 1 -0.020671875 -0.00125 0.015946875 0.349741502887
519 1 -0.020671875 -0.00125 0.017128125 0.317353770801
520 1 -0.020671875 -0.00125 0.018309375 0.278982022645
521 1 -0.020671875 -0.00125 0.019490625 0.194288137291
522 1 -0.020671875 -0.00125 0.020671875 0.150139856732
523 1 -0.020671875 -0.00125 0.021853125 0.0582005834804
524 1 -0.020671875 -0.00125 0.023034375 0.0729135941566
525 1 -0.020671875 -0.00125 0.024215625 0.0768371092559
526 1 -0.020671875 -0.00125 0.025396875 0.10430514808
527 1 -0.020671875 -0.00125 0.026578125 0.175742690784
528 1 -0.020671875 -0.00125 0.027759375 0.186629352532
529 1 -0.020671875 -0.00125 0.028940625 0.0212231612336
530 1 -0.020671875 -0.00125 0.030121875 0.000738595739207
531 1 -0.019490625 -0.00125 -0.031303125 2.90093089639e-09
532 1 -0.019490625 -0.00125 -0.030121875 3.92208194809e-11