ITEM: TIMESTEP
0
ITEM: NUMBER OF ATOMS
3080
ITEM: BOX BOUNDS ss ss ss
-3.7007399999999996e-02 3.7007399999999996e-02
-2.0002499999999999e-03 2.5000000000000004e-07
-3.7007399999999996e-02 3.7007399999999996e-02
ITEM: ATOMS id type x y z c_1
0 1 -0.037209375 -0.00125 -0.000590625 0.999999990028
1 1 -0.036028125 -0.00125 -0.007678125 9.83037666035e-19
2 1 -0.036028125 -0.00125 -0.006496875 5.65235776913e-34
3 1 -0.036028125 -0.00125 -0.005315625 2.83432922103e-58
4 1 -0.036028125 -0.00125 -0.004134375 3.71397789083e-48
5 1 -0.036028125 -0.00125 -0.002953125 7.71860907352e-08
6 1 -0.036028125 -0.00125 -0.001771875 3.86320302706e-05
7 1 -0.036028125 -0.00125 -0.000590625 1.95753965707e-05
8 1 -0.036028125 -0.00125 0.000590625 7.46390462582e-48
9 1 -0.036028125 -0.00125 0.001771875 2.28367868766e-42
10 1 -0.036028125 -0.00125 0.002953125 7.65541312466e-110
11 1 -0.036028125 -0.00125 0.004134375 5.6000960353e-128
12 1 -0.036028125 -0.00125 0.005315625 1.92032889657e-153
13 1 -0.036028125 -0.00125 0.006496875 5.86629776398e-53
14 1 -0.036028125 -0.00125 0.007678125 2.13127673094e-54
15 1 -0.034846875 -0.00125 -0.011221875 2.23939633835e-07
16 1 -0.034846875 -0.00125 -0.010040625 1.48350687891e-08
17 1 -0.034846875 -0.00125 -0.008859375 7.30156846443e-07
18 1 -0.034846875 -0.00125 -0.007678125 7.97257585748e-55
19 1 -0.034846875 -0.00125 -0.006496875 2.09692910825e-37
20 1 -0.034846875 -0.00125 -0.005315625 1.26763931869e-81
21 1 -0.034846875 -0.00125 -0.004134375 3.88967235113e-125
22 1 -0.034846875 -0.00125 -0.002953125 4.50276992814e-13
23 1 -0.034846875 -0.00125 -0.001771875 4.41677386802e-16
24 1 -0.034846875 -0.00125 -0.000590625 5.39959447935e-12
25 1 -0.034846875 -0.00125 0.000590625 1.58170933802e-42
26 1 -0.034846875 -0.00125 0.001771875 2.45680049631e-159
27 1 -0.034846875 -0.00125 0.002953125 0.0
28 1 -0.034846875 -0.00125 0.004134375 0.0
29 1 -0.034846875 -0.00125 0.005315625 2.44402360918e-208
30 1 -0.034846875 -0.00125 0.006496875 1.49813907022e-173
31 1 -0.034846875 -0.00125 0.007678125 3.94550128404e-175
32 1 -0.034846875 -0.00125 0.008859375 1.19006902252e-29
33 1 -0.034846875 -0.00125 0.010040625 7.56411931486e-52
34 1 -0.034846875 -0.00125 0.011221875 2.33597229061e-47
35 1 -0.033665625 -0.00125 -0.013584375 4.10632402152e-10
36 1 -0.033665625 -0.00125 -0.012403125 5.54599441261e-06
37 1 -0.033665625 -0.00125 -0.011221875 1.45667671935e-07
38 1 -0.033665625 -0.00125 -0.010040625 4.36572412812e-08
39 1 -0.033665625 -0.00125 -0.008859375 7.55981516049e-12
40 1 -0.033665625 -0.00125 -0.007678125 6.15240966414e-32
41 1 -0.033665625 -0.00125 -0.006496875 2.56249040259e-66
42 1 -0.033665625 -0.00125 -0.005315625 2.23410617005e-105
43 1 -0.033665625 -0.00125 -0.004134375 7.46894246722e-42
44 1 -0.033665625 -0.00125 -0.002953125 3.64900977037e-35
45 1 -0.033665625 -0.00125 -0.001771875 3.2555785832e-25
46 1 -0.033665625 -0.00125 -0.000590625 1.09390330885e-12
47 1 -0.033665625 -0.00125 0.000590625 2.5085867394e-37
48 1 -0.033665625 -0.00125 0.001771875 1.75861911966e-135
49 1 -0.033665625 -0.00125 0.002953125 5.9957344449e-188
50 1 -0.033665625 -0.00125 0.004134375 0.0
51 1 -0.033665625 -0.00125 0.005315625 0.0
52 1 -0.033665625 -0.00125 0.006496875 7.43521581339e-138
53 1 -0.033665625 -0.00125 0.007678125 2.2335601493e-73
54 1 -0.033665625 -0.00125 0.008859375 2.48098464312e-26
55 1 -0.033665625 -0.00125 0.010040625 9.0079433349e-38
56 1 -0.033665625 -0.00125 0.011221875 2.14717420867e-66
57 1 -0.033665625 -0.00125 0.012403125 3.04911172198e-53
58 1 -0.033665625 -0.00125 0.013584375 3.80066166742e-198
59 1 -0.032484375 -0.00125 -0.018309375 1.36738080281e-07
60 1 -0.032484375 -0.00125 -0.017128125 7.67293737694e-14
61 1 -0.032484375 -0.00125 -0.015946875 5.29731608826e-05
62 1 -0.032484375 -0.00125 -0.014765625 2.38220870676e-07
63 1 -0.032484375 -0.00125 -0.013584375 6.36846906842e-15
64 1 -0.032484375 -0.00125 -0.012403125 3.4454105279e-09
65 1 -0.032484375 -0.00125 -0.011221875 8.64651173395e-07
66 1 -0.032484375 -0.00125 -0.010040625 3.30236583518e-11
67 1 -0.032484375 -0.00125 -0.008859375 2.69061240424e-11
68 1 -0.032484375 -0.00125 -0.007678125 1.75056260602e-08
69 1 -0.032484375 -0.00125 -0.006496875 4.95427452919e-24
70 1 -0.032484375 -0.00125 -0.005315625 6.933745466e-15
71 1 -0.032484375 -0.00125 -0.004134375 1.16912583191e-22
72 1 -0.032484375 -0.00125 -0.002953125 9.40636430639e-33
73 1 -0.032484375 -0.00125 -0.001771875 9.52587515912e-18
74 1 -0.032484375 -0.00125 -0.000590625 6.01191368107e-14
75 1 -0.032484375 -0.00125 0.000590625 1.67149543505e-35
76 1 -0.032484375 -0.00125 0.001771875 8.79140106876e-16
77 1 -0.032484375 -0.00125 0.002953125 2.54455481383e-55
78 1 -0.032484375 -0.00125 0.004134375 1.96941716865e-82
79 1 -0.032484375 -0.00125 0.005315625 8.37018967048e-273
80 1 -0.032484375 -0.00125 0.006496875 8.80608696248e-66
81 1 -0.032484375 -0.00125 0.007678125 1.42063863323e-45
82 1 -0.032484375 -0.00125 0.008859375 1.32631359262e-33
83 1 -0.032484375 -0.00125 0.010040625 6.67968327364e-32
84 1 -0.032484375 -0.00125 0.011221875 6.06928177565e-55
85 1 -0.032484375 -0.00125 0.012403125 2.68351633709e-132
86 1 -0.032484375 -0.00125 0.013584375 0.0
87 1 -0.032484375 -0.00125 0.014765625 2.34075945369e-189
88 1 -0.032484375 -0.00125 0.015946875 1.65277941082e-106
89 1 -0.032484375 -0.00125 0.017128125 4.87196304453e-205
90 1 -0.032484375 -0.00125 0.018309375 1.89311014738e-273
91 1 -0.031303125 -0.00125 -0.019490625 1.57697324738e-08
92 1 -0.031303125 -0.00125 -0.018309375 7.92209342545e-06
93 1 -0.031303125 -0.00125 -0.017128125 6.50398404008e-08
94 1 -0.031303125 -0.00125 -0.015946875 4.89267749641e-09
95 1 -0.031303125 -0.00125 -0.014765625 5.63673994033e-09
96 1 -0.031303125 -0.00125 -0.013584375 2.76427452677e-14
97 1 -0.031303125 -0.00125 -0.012403125 2.67345171797e-11
98 1 -0.031303125 -0.00125 -0.011221875 1.39725599967e-09
99 1 -0.031303125 -0.00125 -0.010040625 1.81768589331e-09
100 1 -0.031303125 -0.00125 -0.008859375 2.63041852233e-12
101 1 -0.031303125 -0.00125 -0.007678125 2.0412270825e-08
102 1 -0.031303125 -0.00125 -0.006496875 1.48142319089e-11
103 1 -0.031303125 -0.00125 -0.005315625 9.8398332154e-12
104 1 -0.031303125 -0.00125 -0.004134375 1.56687856135e-22
105 1 -0.031303125 -0.00125 -0.002953125 4.53729170369e-08
106 1 -0.031303125 -0.00125 -0.001771875 2.0950077654e-08
107 1 -0.031303125 -0.00125 -0.000590625 1.54102139348e-15
108 1 -0.031303125 -0.00125 0.000590625 1.05880750594e-15
109 1 -0.031303125 -0.00125 0.001771875 9.71047837028e-10
110 1 -0.031303125 -0.00125 0.002953125 3.88373706929e-14
111 1 -0.031303125 -0.00125 0.004134375 5.6288496777e-24
112 1 -0.031303125 -0.00125 0.005315625 4.24972080714e-20
113 1 -0.031303125 -0.00125 0.006496875 2.14150454793e-23
114 1 -0.031303125 -0.00125 0.007678125 1.84859380818e-33
115 1 -0.031303125 -0.00125 0.008859375 4.80622436952e-60
116 1 -0.031303125 -0.00125 0.010040625 2.63541934413e-61
117 1 -0.031303125 -0.00125 0.011221875 7.75698181329e-38
118 1 -0.031303125 -0.00125 0.012403125 4.37109442085e-36
119 1 -0.031303125 -0.00125 0.013584375 7.5742611404e-184
120 1 -0.031303125 -0.00125 0.014765625 6.86035670923e-208
121 1 -0.031303125 -0.00125 0.015946875 6.78898077438e-211
122 1 -0.031303125 -0.00125 0.017128125 0.0
123 1 -0.031303125 -0.00125 0.018309375 1.27999707948e-187
124 1 -0.031303125 -0.00125 0.019490625 0.0
125 1 -0.030121875 -0.00125 -0.020671875 7.00154227878e-15
126 1 -0.030121875 -0.00125 -0.019490625 3.28075131359e-07
127 1 -0.030121875 -0.00125 -0.018309375 4.80165347078e-08
128 1 -0.030121875 -0.00125 -0.017128125 2.67189910538e-08
129 1 -0.030121875 -0.00125 -0.015946875 7.43342779335e-14
130 1 -0.030121875 -0.00125 -0.014765625 1.36806452898e-15
131 1 -0.030121875 -0.00125 -0.013584375 6.83190501029e-27
132 1 -0.030121875 -0.00125 -0.012403125 2.21109324247e-07
133 1 -0.030121875 -0.00125 -0.011221875 4.19954472981e-09
134 1 -0.030121875 -0.00125 -0.010040625 3.76166010733e-08
135 1 -0.030121875 -0.00125 -0.008859375 3.65694151532e-12
136 1 -0.030121875 -0.00125 -0.007678125 8.29771237355e-08
137 1 -0.030121875 -0.00125 -0.006496875 3.74222349597e-14
138 1 -0.030121875 -0.00125 -0.005315625 1.44366903338e-07
139 1 -0.030121875 -0.00125 -0.004134375 1.04012754682e-21
140 1 -0.030121875 -0.00125 -0.002953125 7.00766317394e-05
141 1 -0.030121875 -0.00125 -0.001771875 2.02554692493e-11
142 1 -0.030121875 -0.00125 -0.000590625 1.06725056166e-15
143 1 -0.030121875 -0.00125 0.000590625 5.99414994283e-15
144 1 -0.030121875 -0.00125 0.001771875 7.77273690579e-08
145 1 -0.030121875 -0.00125 0.002953125 1.898563642e-10
146 1 -0.030121875 -0.00125 0.004134375 5.04457940475e-10
147 1 -0.030121875 -0.00125 0.005315625 1.6356082347e-14
148 1 -0.030121875 -0.00125 0.006496875 1.3957919299e-13
149 1 -0.030121875 -0.00125 0.007678125 1.01001793948e-58
150 1 -0.030121875 -0.00125 0.008859375 1.31411977675e-84
151 1 -0.030121875 -0.00125 0.010040625 1.75875472281e-37
152 1 -0.030121875 -0.00125 0.011221875 1.37054896108e-84
153 1 -0.030121875 -0.00125 0.012403125 5.42966070452e-50
154 1 -0.030121875 -0.00125 0.013584375 1.12321575603e-61
155 1 -0.030121875 -0.00125 0.014765625 2.6180132642e-113
156 1 -0.030121875 -0.00125 0.015946875 1.25449727905e-248
157 1 -0.030121875 -0.00125 0.017128125 3.23869431968e-220
158 1 -0.030121875 -0.00125 0.018309375 0.0
159 1 -0.030121875 -0.00125 0.019490625 0.0
160 1 -0.030121875 -0.00125 0.020671875 0.0
161 1 -0.028940625 -0.00125 -0.021853125 0.0443806517944
162 1 -0.028940625 -0.00125 -0.020671875 0.000623319399292
163 1 -0.028940625 -0.00125 -0.019490625 1.1495727729e-05
164 1 -0.028940625 -0.00125 -0.018309375 4.81577866236e-11
165 1 -0.028940625 -0.00125 -0.017128125 1.67854578109e-13
166 1 -0.028940625 -0.00125 -0.015946875 5.51964501274e-11
167 1 -0.028940625 -0.00125 -0.014765625 1.05669279586e-12
168 1 -0.028940625 -0.00125 -0.013584375 1.46614512084e-18
169 1 -0.028940625 -0.00125 -0.012403125 7.73633264023e-20
170 1 -0.028940625 -0.00125 -0.011221875 5.47158772301e-15
171 1 -0.028940625 -0.00125 -0.010040625 2.72442888782e-09
172 1 -0.028940625 -0.00125 -0.008859375 5.73989357829e-09
173 1 -0.028940625 -0.00125 -0.007678125 7.2076866319e-08
174 1 -0.028940625 -0.00125 -0.006496875 7.28946920818e-06
175 1 -0.028940625 -0.00125 -0.005315625 0.000106245957422
176 1 -0.028940625 -0.00125 -0.004134375 0.000500407384413
177 1 -0.028940625 -0.00125 -0.002953125 7.26103013446e-05
178 1 -0.028940625 -0.00125 -0.001771875 1.55418254595e-05
179 1 -0.028940625 -0.00125 -0.000590625 2.19219967595e-09
180 1 -0.028940625 -0.00125 0.000590625 3.23210328795e-05
181 1 -0.028940625 -0.00125 0.001771875 1.29414275556e-05
182 1 -0.028940625 -0.00125 0.002953125 1.55013777885e-06
183 1 -0.028940625 -0.00125 0.004134375 2.59484591292e-19
184 1 -0.028940625 -0.00125 0.005315625 3.75898055668e-39
185 1 -0.028940625 -0.00125 0.006496875 9.93338932053e-25
186 1 -0.028940625 -0.00125 0.007678125 1.13733824144e-48
187 1 -0.028940625 -0.00125 0.008859375 1.33697177383e-49
188 1 -0.028940625 -0.00125 0.010040625 2.88525865465e-56
189 1 -0.028940625 -0.00125 0.011221875 6.87188545936e-55
190 1 -0.028940625 -0.00125 0.012403125 3.97131962238e-91
191 1 -0.028940625 -0.00125 0.013584375 5.37147659734e-72
192 1 -0.028940625 -0.00125 0.014765625 7.83603058156e-124
193 1 -0.028940625 -0.00125 0.015946875 2.72307314791e-134
194 1 -0.028940625 -0.00125 0.017128125 1.02610831614e-160
195 1 -0.028940625 -0.00125 0.018309375 4.9856294229e-215
196 1 -0.028940625 -0.00125 0.019490625 0.0
197 1 -0.028940625 -0.00125 0.020671875 0.0
198 1 -0.028940625 -0.00125 0.021853125 0.0
199 1 -0.027759375 -0.00125 -0.024215625 0.00146011114337
200 1 -0.027759375 -0.00125 -0.023034375 0.0191619009412
201 1 -0.027759375 -0.00125 -0.021853125 0.201845824531
202 1 -0.027759375 -0.00125 -0.020671875 0.0207265693251
203 1 -0.027759375 -0.00125 -0.019490625 0.000146844874331
204 1 -0.027759375 -0.00125 -0.018309375 1.36777511468e-05
205 1 -0.027759375 -0.00125 -0.017128125 4.11648554366e-09
206 1 -0.027759375 -0.00125 -0.015946875 1.26330946554e-15
207 1 -0.027759375 -0.00125 -0.014765625 2.04467182203e-17
208 1 -0.027759375 -0.00125 -0.013584375 7.24484263379e-19
209 1 -0.027759375 -0.00125 -0.012403125 3.64135743484e-07
210 1 -0.027759375 -0.00125 -0.011221875 1.59938969797e-07
211 1 -0.027759375 -0.00125 -0.010040625 3.8735915813e-07
212 1 -0.027759375 -0.00125 -0.008859375 8.04070810835e-06
213 1 -0.027759375 -0.00125 -0.007678125 3.14503977986e-06
214 1 -0.027759375 -0.00125 -0.006496875 0.00100385968526
215 1 -0.027759375 -0.00125 -0.005315625 0.00369209533101
216 1 -0.027759375 -0.00125 -0.004134375 0.0255316987073
217 1 -0.027759375 -0.00125 -0.002953125 0.0447236573763
218 1 -0.027759375 -0.00125 -0.001771875 0.00549709201201
219 1 -0.027759375 -0.00125 -0.000590625 0.00169867837513
220 1 -0.027759375 -0.00125 0.000590625 0.00139085425391
221 1 -0.027759375 -0.00125 0.001771875 0.00149397779908
222 1 -0.027759375 -0.00125 0.002953125 3.39681099355e-05
223 1 -0.027759375 -0.00125 0.004134375 2.12876667948e-07
224 1 -0.027759375 -0.00125 0.005315625 2.24800500753e-16
225 1 -0.027759375 -0.00125 0.006496875 4.81465186608e-23
226 1 -0.027759375 -0.00125 0.007678125 5.41238585489e-27
227 1 -0.027759375 -0.00125 0.008859375 7.08690953973e-15
228 1 -0.027759375 -0.00125 0.010040625 4.40819442556e-14
229 1 -0.027759375 -0.00125 0.011221875 7.55327163333e-20
230 1 -0.027759375 -0.00125 0.012403125 4.07709824603e-36
231 1 -0.027759375 -0.00125 0.013584375 1.44683519658e-36
232 1 -0.027759375 -0.00125 0.014765625 1.45831451005e-33
233 1 -0.027759375 -0.00125 0.015946875 2.4838498065e-32
234 1 -0.027759375 -0.00125 0.017128125 1.7832321381e-149
235 1 -0.027759375 -0.00125 0.018309375 1.48476794315e-100
236 1 -0.027759375 -0.00125 0.019490625 1.37092892801e-272
237 1 -0.027759375 -0.00125 0.020671875 0.0
238 1 -0.027759375 -0.00125 0.021853125 0.0
239 1 -0.027759375 -0.00125 0.023034375 0.0
240 1 -0.027759375 -0.00125 0.024215625 0.0
241 1 -0.026578125 -0.00125 -0.026578125 0.0220027859947
242 1 -0.026578125 -0.00125 -0.025396875 0.0245002124833
243 1 -0.026578125 -0.00125 -0.024215625 0.0076298723002
244 1 -0.026578125 -0.00125 -0.023034375 0.0694139322319
245 1 -0.026578125 -0.00125 -0.021853125 0.177140182578
246 1 -0.026578125 -0.00125 -0.020671875 0.0276941826007
247 1 -0.026578125 -0.00125 -0.019490625 0.00228431482613
248 1 -0.026578125 -0.00125 -0.018309375 0.000164808982377
249 1 -0.026578125 -0.00125 -0.017128125 8.57935823932e-07
250 1 -0.026578125 -0.00125 -0.015946875 3.80973187852e-12
251 1 -0.026578125 -0.00125 -0.014765625 3.44981024732e-11
252 1 -0.026578125 -0.00125 -0.013584375 5.27006654389e-09
253 1 -0.026578125 -0.00125 -0.012403125 9.32209392423e-07
254 1 -0.026578125 -0.00125 -0.011221875 3.39573436253e-05
255 1 -0.026578125 -0.00125 -0.010040625 0.000535868040871
256 1 -0.026578125 -0.00125 -0.008859375 0.000709366263708
257 1 -0.026578125 -0.00125 -0.007678125 0.0109703440756
258 1 -0.026578125 -0.00125 -0.006496875 0.03723816476
259 1 -0.026578125 -0.00125 -0.005315625 0.00796268267113
260 1 -0.026578125 -0.00125 -0.004134375 0.0314232656959
261 1 -0.026578125 -0.00125 -0.002953125 0.0342483099494
262 1 -0.026578125 -0.00125 -0.001771875 0.0343842738756
263 1 -0.026578125 -0.00125 -0.000590625 0.00168995670673
264 1 -0.026578125 -0.00125 0.000590625 0.00345869513485
265 1 -0.026578125 -0.00125 0.001771875 0.00979426822348
266 1 -0.026578125 -0.00125 0.002953125 0.00149157780247
267 1 -0.026578125 -0.00125 0.004134375 0.000227142710789
268 1 -0.026578125 -0.00125 0.005315625 6.73773973581e-05
269 1 -0.026578125 -0.00125 0.006496875 1.156512174e-07
270 1 -0.026578125 -0.00125 0.007678125 8.18587453616e-06
271 1 -0.026578125 -0.00125 0.008859375 1.84660977293e-13
272 1 -0.026578125 -0.00125 0.010040625 9.99453365123e-11
273 1 -0.026578125 -0.00125 0.011221875 2.03899415638e-06
274 1 -0.026578125 -0.00125 0.012403125 2.60703591409e-11
275 1 -0.026578125 -0.00125 0.013584375 8.9125889537e-16
276 1 -0.026578125 -0.00125 0.014765625 1.65237127332e-12
277 1 -0.026578125 -0.00125 0.015946875 6.98169175604e-21
278 1 -0.026578125 -0.00125 0.017128125 2.52787693971e-26
279 1 -0.026578125 -0.00125 0.018309375 1.57196913387e-45
280 1 -0.026578125 -0.00125 0.019490625 1.0139243634e-102
281 1 -0.026578125 -0.00125 0.020671875 0.0
282 1 -0.026578125 -0.00125 0.021853125 0.0
283 1 -0.026578125 -0.00125 0.023034375 0.0
284 1 -0.026578125 -0.00125 0.024215625 0.0
285 1 -0.026578125 -0.00125 0.025396875 0.0
286 1 -0.026578125 -0.00125 0.026578125 0.0
287 1 -0.025396875 -0.00125 -0.026578125 0.00134726120757
288 1 -0.025396875 -0.00125 -0.025396875 0.0104458006304
289 1 -0.025396875 -0.00125 -0.024215625 0.0294093753391
290 1 -0.025396875 -0.00125 -0.023034375 0.146552205218
291 1 -0.025396875 -0.00125 -0.021853125 0.0444975648174
292 1 -0.025396875 -0.00125 -0.020671875 0.0238401674989
293 1 -0.025396875 -0.00125 -0.019490625 0.000497368202943
294 1 -0.025396875 -0.00125 -0.018309375 0.000142086086483
295 1 -0.025396875 -0.00125 -0.017128125 8.76506124491e-08
296 1 -0.025396875 -0.00125 -0.015946875 3.01638434305e-06
297 1 -0.025396875 -0.00125 -0.014765625 3.45158628094e-06
298 1 -0.025396875 -0.00125 -0.013584375 3.94544165507e-10
299 1 -0.025396875 -0.00125 -0.012403125 0.00299668993888
300 1 -0.025396875 -0.00125 -0.011221875 0.00114774087193
301 1 -0.025396875 -0.00125 -0.010040625 0.0777639025174
302 1 -0.025396875 -0.00125 -0.008859375 0.0152274434571
303 1 -0.025396875 -0.00125 -0.007678125 0.0585593429243
304 1 -0.025396875 -0.00125 -0.006496875 0.0532584516727
305 1 -0.025396875 -0.00125 -0.005315625 0.0386915382387
306 1 -0.025396875 -0.00125 -0.004134375 0.0533475745649
307 1 -0.025396875 -0.00125 -0.002953125 0.0474906604528
308 1 -0.025396875 -0.00125 -0.001771875 0.0292662274727
309 1 -0.025396875 -0.00125 -0.000590625 0.00155321672304
310 1 -0.025396875 -0.00125 0.000590625 0.0132494288551
311 1 -0.025396875 -0.00125 0.001771875 0.0157295565196
312 1 -0.025396875 -0.00125 0.002953125 0.00477176520915
313 1 -0.025396875 -0.00125 0.004134375 0.00311769103146
314 1 -0.025396875 -0.00125 0.005315625 0.000903884245478
315 1 -0.025396875 -0.00125 0.006496875 0.00106575258042
316 1 -0.025396875 -0.00125 0.007678125 0.000437295161442
317 1 -0.025396875 -0.00125 0.008859375 0.000125587453598
318 1 -0.025396875 -0.00125 0.010040625 0.000283008969213
319 1 -0.025396875 -0.00125 0.011221875 0.0018922620619
320 1 -0.025396875 -0.00125 0.012403125 5.27572913433e-06
321 1 -0.025396875 -0.00125 0.013584375 2.27383942676e-06
322 1 -0.025396875 -0.00125 0.014765625 8.05172236371e-22
323 1 -0.025396875 -0.00125 0.015946875 1.05584902072e-20
324 1 -0.025396875 -0.00125 0.017128125 2.08055988513e-21
325 1 -0.025396875 -0.00125 0.018309375 1.1932654121e-29
326 1 -0.025396875 -0.00125 0.019490625 1.39466460424e-84
327 1 -0.025396875 -0.00125 0.020671875 6.79404752226e-73
328 1 -0.025396875 -0.00125 0.021853125 0.0
329 1 -0.025396875 -0.00125 0.023034375 0.0
330 1 -0.025396875 -0.00125 0.024215625 0.0
331 1 -0.025396875 -0.00125 0.025396875 0.0
332 1 -0.025396875 -0.00125 0.026578125 0.0
333 1 -0.024215625 -0.00125 -0.027759375 0.000694340326735
334 1 -0.024215625 -0.00125 -0.026578125 0.00424144093991
335 1 -0.024215625 -0.00125 -0.025396875 0.0161416128557
336 1 -0.024215625 -0.00125 -0.024215625 0.0221463100725
337 1 -0.024215625 -0.00125 -0.023034375 0.00691829529116
338 1 -0.024215625 -0.00125 -0.021853125 0.00352208831864
339 1 -0.024215625 -0.00125 -0.020671875 0.0026596403916
340 1 -0.024215625 -0.00125 -0.019490625 0.000194395937115
341 1 -0.024215625 -0.00125 -0.018309375 6.29169250711e-06
342 1 -0.024215625 -0.00125 -0.017128125 7.66767869482e-06
343 1 -0.024215625 -0.00125 -0.015946875 0.000124924392057
344 1 -0.024215625 -0.00125 -0.014765625 0.000385611597247
345 1 -0.024215625 -0.00125 -0.013584375 0.00352525683647
346 1 -0.024215625 -0.00125 -0.012403125 0.0769670702926
347 1 -0.024215625 -0.00125 -0.011221875 0.131041954791
348 1 -0.024215625 -0.00125 -0.010040625 0.177635876181
349 1 -0.024215625 -0.00125 -0.008859375 0.0489572298498
350 1 -0.024215625 -0.00125 -0.007678125 0.0399686179155
351 1 -0.024215625 -0.00125 -0.006496875 0.0367043179763
352 1 -0.024215625 -0.00125 -0.005315625 0.00835146394093
353 1 -0.024215625 -0.00125 -0.004134375 0.0220676097982
354 1 -0.024215625 -0.00125 -0.002953125 0.00437462556538
355 1 -0.024215625 -0.00125 -0.001771875 0.00825938845177
356 1 -0.024215625 -0.00125 -0.000590625 0.0111840514796
357 1 -0.024215625 -0.00125 0.000590625 0.0106895883961
358 1 -0.024215625 -0.00125 0.001771875 0.0136299452391
359 1 -0.024215625 -0.00125 0.002953125 0.018845234044
360 1 -0.024215625 -0.00125 0.004134375 0.00305234772798
361 1 -0.024215625 -0.00125 0.005315625 0.00413546748585
362 1 -0.024215625 -0.00125 0.006496875 0.001269097864
363 1 -0.024215625 -0.00125 0.007678125 0.00187460646373
364 1 -0.024215625 -0.00125 0.008859375 0.000318500093002
365 1 -0.024215625 -0.00125 0.010040625 0.000684520857178
366 1 -0.024215625 -0.00125 0.011221875 2.86372604504e-05
367 1 -0.024215625 -0.00125 0.012403125 0.000721632371999
368 1 -0.024215625 -0.00125 0.013584375 2.45304202866e-06
369 1 -0.024215625 -0.00125 0.014765625 4.33780247014e-09
370 1 -0.024215625 -0.00125 0.015946875 2.13053283741e-15
371 1 -0.024215625 -0.00125 0.017128125 3.81428314809e-26
372 1 -0.024215625 -0.00125 0.018309375 3.44017542486e-31
373 1 -0.024215625 -0.00125 0.019490625 9.35034177461e-81
374 1 -0.024215625 -0.00125 0.020671875 5.20014139154e-155
375 1 -0.024215625 -0.00125 0.021853125 7.15078445171e-243
376 1 -0.024215625 -0.00125 0.023034375 0.0
377 1 -0.024215625 -0.00125 0.024215625 0.0
378 1 -0.024215625 -0.00125 0.025396875 0.0
379 1 -0.024215625 -0.00125 0.026578125 0.0
380 1 -0.024215625 -0.00125 0.027759375 0.0
381 1 -0.023034375 -0.00125 -0.027759375 0.0258737704577
382 1 -0.023034375 -0.00125 -0.026578125 0.0495355406643
383 1 -0.023034375 -0.00125 -0.025396875 0.0543184034971
384 1 -0.023034375 -0.00125 -0.024215625 0.0323376462023
385 1 -0.023034375 -0.00125 -0.023034375 0.0296364259403
386 1 -0.023034375 -0.00125 -0.021853125 0.00138417387583
387 1 -0.023034375 -0.00125 -0.020671875 0.00075041214764
388 1 -0.023034375 -0.00125 -0.019490625 0.000253158456108
389 1 -0.023034375 -0.00125 -0.018309375 0.000233799561229
390 1 -0.023034375 -0.00125 -0.017128125 0.00426748577558
391 1 -0.023034375 -0.00125 -0.015946875 0.00404173410441
392 1 -0.023034375 -0.00125 -0.014765625 0.01715479958
393 1 -0.023034375 -0.00125 -0.013584375 0.0663034802097
394 1 -0.023034375 -0.00125 -0.012403125 0.0604529632065
395 1 -0.023034375 -0.00125 -0.011221875 0.183572441817
396 1 -0.023034375 -0.00125 -0.010040625 0.120235352268
397 1 -0.023034375 -0.00125 -0.008859375 0.0371342740107
398 1 -0.023034375 -0.00125 -0.007678125 0.0269352074888
399 1 -0.023034375 -0.00125 -0.006496875 0.0102630438956
400 1 -0.023034375 -0.00125 -0.005315625 0.0328151286508
401 1 -0.023034375 -0.00125 -0.004134375 0.0237720639674
402 1 -0.023034375 -0.00125 -0.002953125 0.0158795875553
403 1 -0.023034375 -0.00125 -0.001771875 0.0174176581088
404 1 -0.023034375 -0.00125 -0.000590625 0.0185439814619
405 1 -0.023034375 -0.00125 0.000590625 0.0273570230383
406 1 -0.023034375 -0.00125 0.001771875 0.0221689799641
407 1 -0.023034375 -0.00125 0.002953125 0.0076392124575
408 1 -0.023034375 -0.00125 0.004134375 0.00288479128174
409 1 -0.023034375 -0.00125 0.005315625 0.000790284110908
410 1 -0.023034375 -0.00125 0.006496875 0.00251577237429
411 1 -0.023034375 -0.00125 0.007678125 0.00136190130591
412 1 -0.023034375 -0.00125 0.008859375 0.00436871017484
413 1 -0.023034375 -0.00125 0.010040625 0.0146014290865
414 1 -0.023034375 -0.00125 0.011221875 0.00436545473717
415 1 -0.023034375 -0.00125 0.012403125 9.0719816046e-05
416 1 -0.023034375 -0.00125 0.013584375 1.5882725899e-05
417 1 -0.023034375 -0.00125 0.014765625 2.19070474075e-08
418 1 -0.023034375 -0.00125 0.015946875 4.29172634509e-11
419 1 -0.023034375 -0.00125 0.017128125 1.55140754608e-28
420 1 -0.023034375 -0.00125 0.018309375 7.45930037388e-17
421 1 -0.023034375 -0.00125 0.019490625 7.40169284421e-29
422 1 -0.023034375 -0.00125 0.020671875 1.89614612979e-61
423 1 -0.023034375 -0.00125 0.021853125 0.0
424 1 -0.023034375 -0.00125 0.023034375 0.0
425 1 -0.023034375 -0.00125 0.024215625 0.0
426 1 -0.023034375 -0.00125 0.025396875 0.0
427 1 -0.023034375 -0.00125 0.026578125 0.0
428 1 -0.023034375 -0.00125 0.027759375 0.0
429 1 -0.021853125 -0.00125 -0.028940625 0.0460957591026
430 1 -0.021853125 -0.00125 -0.027759375 0.160127678915
431 1 -0.021853125 -0.00125 -0.026578125 0.0895623326449
432 1 -0.021853125 -0.00125 -0.025396875 0.0776306055346
433 1 -0.021853125 -0.00125 -0.024215625 0.0451584723026
434 1 -0.021853125 -0.00125 -0.023034375 0.0391083498332
435 1 -0.021853125 -0.00125 -0.021853125 0.00461793007936
436 1 -0.021853125 -0.00125 -0.020671875 0.000725049183629
437 1 -0.021853125 -0.00125 -0.019490625 0.00363658674922
438 1 -0.021853125 -0.00125 -0.018309375 0.0026448473626
439 1 -0.021853125 -0.00125 -0.017128125 0.0166817007703
440 1 -0.021853125 -0.00125 -0.015946875 0.0161250910563
441 1 -0.021853125 -0.00125 -0.014765625 0.121211443634
442 1 -0.021853125 -0.00125 -0.013584375 0.19293177693
443 1 -0.021853125 -0.00125 -0.012403125 0.105873948009
444 1 -0.021853125 -0.00125 -0.011221875 0.102097902509
445 1 -0.021853125 -0.00125 -0.010040625 0.0724307394864
446 1 -0.021853125 -0.00125 -0.008859375 0.0636917135077
447 1 -0.021853125 -0.00125 -0.007678125 0.0437507057744
448 1 -0.021853125 -0.00125 -0.006496875 0.02916120961
449 1 -0.021853125 -0.00125 -0.005315625 0.0126465595065
450 1 -0.021853125 -0.00125 -0.004134375 0.0187288326712
451 1 -0.021853125 -0.00125 -0.002953125 0.0118895495812
452 1 -0.021853125 -0.00125 -0.001771875 0.0147754095942
453 1 -0.021853125 -0.00125 -0.000590625 0.043849192069
454 1 -0.021853125 -0.00125 0.000590625 0.023995926633
455 1 -0.021853125 -0.00125 0.001771875 0.00749912473624
456 1 -0.021853125 -0.00125 0.002953125 0.00460046347044
457 1 -0.021853125 -0.00125 0.004134375 0.021487289292
458 1 -0.021853125 -0.00125 0.005315625 0.0178443974668
459 1 -0.021853125 -0.00125 0.006496875 0.021730247762
460 1 -0.021853125 -0.00125 0.007678125 0.0164653851944
461 1 -0.021853125 -0.00125 0.008859375 0.0183012719555
462 1 -0.021853125 -0.00125 0.010040625 0.00855116313913
463 1 -0.021853125 -0.00125 0.011221875 0.00260888054604
464 1 -0.021853125 -0.00125 0.012403125 0.000751681199385
465 1 -0.021853125 -0.00125 0.013584375 0.000187726292352
466 1 -0.021853125 -0.00125 0.014765625 2.26011835304e-05
467 1 -0.021853125 -0.00125 0.015946875 1.97773367006e-07
468 1 -0.021853125 -0.00125 0.017128125 5.6475275774e-11
469 1 -0.021853125 -0.00125 0.018309375 2.64990500116e-16
470 1 -0.021853125 -0.00125 0.019490625 8.86790230684e-19
471 1 -0.021853125 -0.00125 0.020671875 3.76163480321e-64
472 1 -0.021853125 -0.00125 0.021853125 1.01288242683e-110
473 1 -0.021853125 -0.00125 0.023034375 1.65367030874e-183
474 1 -0.021853125 -0.00125 0.024215625 2.89911759785e-232
475 1 -0.021853125 -0.00125 0.025396875 0.0
476 1 -0.021853125 -0.00125 0.026578125 0.0
477 1 -0.021853125 -0.00125 0.027759375 0.0
478 1 -0.021853125 -0.00125 0.028940625 7.3995486145e-199
479 1 -0.020671875 -0.00125 -0.030121875 0.0141192511745
480 1 -0.020671875 -0.00125 -0.028940625 0.0795234313641
481 1 -0.020671875 -0.00125 -0.027759375 0.342754214929
482 1 -0.020671875 -0.00125 -0.026578125 0.125939473211
483 1 -0.020671875 -0.00125 -0.025396875 0.105686435374
484 1 -0.020671875 -0.00125 -0.024215625 0.0798640787535
485 1 -0.020671875 -0.00125 -0.023034375 0.0480082606078
486 1 -0.020671875 -0.00125 -0.021853125 0.0465508826387
487 1 -0.020671875 -0.00125 -0.020671875 0.0248999572875
488 1 -0.020671875 -0.00125 -0.019490625 0.0192179133827
489 1 -0.020671875 -0.00125 -0.018309375 0.0523222647469
490 1 -0.020671875 -0.00125 -0.017128125 0.0286205592562
491 1 -0.020671875 -0.00125 -0.015946875 0.0334061935763
492 1 -0.020671875 -0.00125 -0.014765625 0.0981561324626
493 1 -0.020671875 -0.00125 -0.013584375 0.171991420838
494 1 -0.020671875 -0.00125 -0.012403125 0.136241343174
495 1 -0.020671875 -0.00125 -0.011221875 0.00435742276104
496 1 -0.020671875 -0.00125 -0.010040625 0.032863519103
497 1 -0.020671875 -0.00125 -0.008859375 0.0250534382613
498 1 -0.020671875 -0.00125 -0.007678125 0.00810079116414
499 1 -0.020671875 -0.00125 -0.006496875 0.0354765318844
500 1 -0.020671875 -0.00125 -0.005315625 0.0190645302676
501 1 -0.020671875 -0.00125 -0.004134375 0.0117173041447
502 1 -0.020671875 -0.00125 -0.002953125 0.0262430885149
503 1 -0.020671875 -0.00125 -0.001771875 0.0473955036988
504 1 -0.020671875 -0.00125 -0.000590625 0.0568715731366
505 1 -0.020671875 -0.00125 0.000590625 0.0536239513971
506 1 -0.020671875 -0.00125 0.001771875 0.0196287471212
507 1 -0.020671875 -0.00125 0.002953125 0.0172420333438
508 1 -0.020671875 -0.00125 0.004134375 0.021631027484
509 1 -0.020671875 -0.00125 0.005315625 0.00321223380805
510 1 -0.020671875 -0.00125 0.006496875 0.00419534892603
511 1 -0.020671875 -0.00125 0.007678125 0.0024771787155
512 1 -0.020671875 -0.00125 0.008859375 0.0252464866657
513 1 -0.020671875 -0.00125 0.010040625 0.005923247885
514 1 -0.020671875 -0.00125 0.011221875 0.00494354892551
515 1 -0.020671875 -0.00125 0.012403125 0.00219958408884
516 1 -0.020671875 -0.00125 0.013584375 0.000187321510525
517 1 -0.020671875 -0.00125 0.014765625 0.0005976255273
518 1 -0.020671875 -0.00125 0.015946875 3.42484375159e-05
519 1 -0.020671875 -0.00125 0.017128125 1.28274521208e-08
520 1 -0.020671875 -0.00125 0.018309375 3.24481760452e-08
521 1 -0.020671875 -0.00125 0.019490625 1.03026040718e-14
522 1 -0.020671875 -0.00125 0.020671875 3.5171619639e-58
523 1 -0.020671875 -0.00125 0.021853125 2.92618916044e-98
524 1 -0.020671875 -0.00125 0.023034375 7.59883513409e-75
525 1 -0.020671875 -0.00125 0.024215625 1.20859205433e-184