ITEM: TIMESTEP
0
ITEM: NUMBER OF ATOMS
3080
ITEM: BOX BOUNDS ss ss ss
-3.7007399999999996e-02 3.7007399999999996e-02
-2.0002499999999999e-03 2.5000000000000004e-07
-3.7007399999999996e-02 3.7007399999999996e-02
ITEM: ATOMS id type x y z c_1
0 1 -0.037209375 -0.00125 -0.000590625 0.771098270729
1 1 -0.036028125 -0.00125 -0.007678125 5.17717111482e-25
2 1 -0.036028125 -0.00125 -0.006496875 1.11017199726e-29
3 1 -0.036028125 -0.00125 -0.005315625 5.93032211844e-49
4 1 -0.036028125 -0.00125 -0.004134375 3.41997887359e-40
5 1 -0.036028125 -0.00125 -0.002953125 3.0104051917e-08
6 1 -0.036028125 -0.00125 -0.001771875 1.70197189475e-05
7 1 -0.036028125 -0.00125 -0.000590625 0.000180839391242
8 1 -0.036028125 -0.00125 0.000590625 3.08577865475e-09
9 1 -0.036028125 -0.00125 0.001771875 2.51673923097e-05
10 1 -0.036028125 -0.00125 0.002953125 4.53652956176e-20
11 1 -0.036028125 -0.00125 0.004134375 9.74177334819e-40
12 1 -0.036028125 -0.00125 0.005315625 1.76879340882e-68
13 1 -0.036028125 -0.00125 0.006496875 1.73538762366e-27
14 1 -0.036028125 -0.00125 0.007678125 1.44524887687e-25
15 1 -0.034846875 -0.00125 -0.011221875 9.44142175616e-06
16 1 -0.034846875 -0.00125 -0.010040625 6.63407318651e-13
17 1 -0.034846875 -0.00125 -0.008859375 5.65024196363e-09
18 1 -0.034846875 -0.00125 -0.007678125 1.13874787443e-36
19 1 -0.034846875 -0.00125 -0.006496875 3.17301565899e-54
20 1 -0.034846875 -0.00125 -0.005315625 2.7816572587e-83
21 1 -0.034846875 -0.00125 -0.004134375 1.6400119916e-67
22 1 -0.034846875 -0.00125 -0.002953125 2.54670553842e-15
23 1 -0.034846875 -0.00125 -0.001771875 6.97267227657e-07
24 1 -0.034846875 -0.00125 -0.000590625 1.36501389071e-06
25 1 -0.034846875 -0.00125 0.000590625 1.38550644033e-09
26 1 -0.034846875 -0.00125 0.001771875 5.03629550117e-10
27 1 -0.034846875 -0.00125 0.002953125 1.90338148542e-25
28 1 -0.034846875 -0.00125 0.004134375 1.05651348885e-70
29 1 -0.034846875 -0.00125 0.005315625 3.06339306163e-99
30 1 -0.034846875 -0.00125 0.006496875 3.57890229626e-76
31 1 -0.034846875 -0.00125 0.007678125 1.83035667238e-33
32 1 -0.034846875 -0.00125 0.008859375 1.01371149512e-06
33 1 -0.034846875 -0.00125 0.010040625 1.30380117139e-15
34 1 -0.034846875 -0.00125 0.011221875 5.66947346482e-08
35 1 -0.033665625 -0.00125 -0.013584375 2.4614865082e-18
36 1 -0.033665625 -0.00125 -0.012403125 0.000103372472049
37 1 -0.033665625 -0.00125 -0.011221875 1.42168719862e-06
38 1 -0.033665625 -0.00125 -0.010040625 3.42672638142e-10
39 1 -0.033665625 -0.00125 -0.008859375 2.3979025049e-12
40 1 -0.033665625 -0.00125 -0.007678125 9.19612212813e-35
41 1 -0.033665625 -0.00125 -0.006496875 4.59991067716e-76
42 1 -0.033665625 -0.00125 -0.005315625 5.06621606442e-131
43 1 -0.033665625 -0.00125 -0.004134375 8.90458063762e-40
44 1 -0.033665625 -0.00125 -0.002953125 6.98137840431e-19
45 1 -0.033665625 -0.00125 -0.001771875 1.04201139204e-09
46 1 -0.033665625 -0.00125 -0.000590625 2.36140402816e-07
47 1 -0.033665625 -0.00125 0.000590625 3.01972869436e-08
48 1 -0.033665625 -0.00125 0.001771875 2.01643581447e-10
49 1 -0.033665625 -0.00125 0.002953125 2.67808636856e-19
50 1 -0.033665625 -0.00125 0.004134375 7.12948107074e-85
51 1 -0.033665625 -0.00125 0.005315625 1.05418971514e-81
52 1 -0.033665625 -0.00125 0.006496875 4.22800216437e-56
53 1 -0.033665625 -0.00125 0.007678125 3.90216430816e-21
54 1 -0.033665625 -0.00125 0.008859375 2.30662536286e-09
55 1 -0.033665625 -0.00125 0.010040625 7.53689170796e-12
56 1 -0.033665625 -0.00125 0.011221875 4.86910991917e-10
57 1 -0.033665625 -0.00125 0.012403125 3.05057368325e-05
58 1 -0.033665625 -0.00125 0.013584375 5.05018513239e-18
59 1 -0.032484375 -0.00125 -0.018309375 4.92417163526e-15
60 1 -0.032484375 -0.00125 -0.017128125 2.78487997213e-18
61 1 -0.032484375 -0.00125 -0.015946875 3.96768480645e-07
62 1 -0.032484375 -0.00125 -0.014765625 3.6994864372e-16
63 1 -0.032484375 -0.00125 -0.013584375 1.1359688992e-24
64 1 -0.032484375 -0.00125 -0.012403125 5.92951560785e-11
65 1 -0.032484375 -0.00125 -0.011221875 1.14742668919e-10
66 1 -0.032484375 -0.00125 -0.010040625 9.15303893933e-15
67 1 -0.032484375 -0.00125 -0.008859375 8.0562948973e-17
68 1 -0.032484375 -0.00125 -0.007678125 6.1333131254e-13
69 1 -0.032484375 -0.00125 -0.006496875 7.27425550743e-46
70 1 -0.032484375 -0.00125 -0.005315625 8.83009369698e-64
71 1 -0.032484375 -0.00125 -0.004134375 4.52976625988e-42
72 1 -0.032484375 -0.00125 -0.002953125 6.28636690012e-21
73 1 -0.032484375 -0.00125 -0.001771875 1.21815863917e-12
74 1 -0.032484375 -0.00125 -0.000590625 2.34104898919e-10
75 1 -0.032484375 -0.00125 0.000590625 1.65407853193e-12
76 1 -0.032484375 -0.00125 0.001771875 2.59184433452e-09
77 1 -0.032484375 -0.00125 0.002953125 1.93026846853e-22
78 1 -0.032484375 -0.00125 0.004134375 1.61837653646e-64
79 1 -0.032484375 -0.00125 0.005315625 1.85084467082e-59
80 1 -0.032484375 -0.00125 0.006496875 5.3421550446e-70
81 1 -0.032484375 -0.00125 0.007678125 1.57584042126e-31
82 1 -0.032484375 -0.00125 0.008859375 3.88988919768e-14
83 1 -0.032484375 -0.00125 0.010040625 7.96849546088e-15
84 1 -0.032484375 -0.00125 0.011221875 3.99446968975e-09
85 1 -0.032484375 -0.00125 0.012403125 8.09651544362e-13
86 1 -0.032484375 -0.00125 0.013584375 1.71726612329e-65
87 1 -0.032484375 -0.00125 0.014765625 3.74558789041e-14
88 1 -0.032484375 -0.00125 0.015946875 5.13185175982e-09
89 1 -0.032484375 -0.00125 0.017128125 2.10323547379e-08
90 1 -0.032484375 -0.00125 0.018309375 6.19608904267e-13
91 1 -0.031303125 -0.00125 -0.019490625 4.60430616258e-17
92 1 -0.031303125 -0.00125 -0.018309375 5.30015574348e-13
93 1 -0.031303125 -0.00125 -0.017128125 7.17074544866e-12
94 1 -0.031303125 -0.00125 -0.015946875 4.25993624897e-14
95 1 -0.031303125 -0.00125 -0.014765625 6.0793523226e-12
96 1 -0.031303125 -0.00125 -0.013584375 1.44010908394e-15
97 1 -0.031303125 -0.00125 -0.012403125 1.30767764821e-14
98 1 -0.031303125 -0.00125 -0.011221875 1.50289968685e-12
99 1 -0.031303125 -0.00125 -0.010040625 2.4133075118e-12
100 1 -0.031303125 -0.00125 -0.008859375 4.0206313086e-18
101 1 -0.031303125 -0.00125 -0.007678125 1.15460028413e-17
102 1 -0.031303125 -0.00125 -0.006496875 5.51428092002e-22
103 1 -0.031303125 -0.00125 -0.005315625 6.96895303946e-25
104 1 -0.031303125 -0.00125 -0.004134375 1.91248251091e-32
105 1 -0.031303125 -0.00125 -0.002953125 1.14424335949e-19
106 1 -0.031303125 -0.00125 -0.001771875 1.27608712813e-13
107 1 -0.031303125 -0.00125 -0.000590625 7.73258663827e-09
108 1 -0.031303125 -0.00125 0.000590625 8.49229779902e-10
109 1 -0.031303125 -0.00125 0.001771875 4.30725030815e-12
110 1 -0.031303125 -0.00125 0.002953125 3.08028096136e-16
111 1 -0.031303125 -0.00125 0.004134375 3.14790385644e-19
112 1 -0.031303125 -0.00125 0.005315625 6.86080515086e-24
113 1 -0.031303125 -0.00125 0.006496875 5.6884094801e-36
114 1 -0.031303125 -0.00125 0.007678125 1.31290448928e-24
115 1 -0.031303125 -0.00125 0.008859375 2.79421577069e-23
116 1 -0.031303125 -0.00125 0.010040625 4.38171486782e-26
117 1 -0.031303125 -0.00125 0.011221875 1.23642066247e-16
118 1 -0.031303125 -0.00125 0.012403125 5.89265417518e-11
119 1 -0.031303125 -0.00125 0.013584375 4.17841134391e-21
120 1 -0.031303125 -0.00125 0.014765625 2.2274858387e-16
121 1 -0.031303125 -0.00125 0.015946875 2.1302432627e-11
122 1 -0.031303125 -0.00125 0.017128125 4.30548005411e-15
123 1 -0.031303125 -0.00125 0.018309375 1.08480955009e-11
124 1 -0.031303125 -0.00125 0.019490625 6.04295826202e-21
125 1 -0.030121875 -0.00125 -0.020671875 2.71616115953e-38
126 1 -0.030121875 -0.00125 -0.019490625 1.57015830468e-18
127 1 -0.030121875 -0.00125 -0.018309375 8.23237854029e-12
128 1 -0.030121875 -0.00125 -0.017128125 1.48318071655e-10
129 1 -0.030121875 -0.00125 -0.015946875 1.96054564513e-17
130 1 -0.030121875 -0.00125 -0.014765625 2.06137107475e-15
131 1 -0.030121875 -0.00125 -0.013584375 9.63749855094e-17
132 1 -0.030121875 -0.00125 -0.012403125 2.60565333068e-13
133 1 -0.030121875 -0.00125 -0.011221875 5.57432042529e-14
134 1 -0.030121875 -0.00125 -0.010040625 4.31847224921e-22
135 1 -0.030121875 -0.00125 -0.008859375 1.43757789259e-24
136 1 -0.030121875 -0.00125 -0.007678125 1.96670142313e-23
137 1 -0.030121875 -0.00125 -0.006496875 6.69548323982e-27
138 1 -0.030121875 -0.00125 -0.005315625 1.86972058352e-15
139 1 -0.030121875 -0.00125 -0.004134375 2.03792994487e-48
140 1 -0.030121875 -0.00125 -0.002953125 7.59418138591e-17
141 1 -0.030121875 -0.00125 -0.001771875 6.43541596067e-16
142 1 -0.030121875 -0.00125 -0.000590625 2.06865685119e-15
143 1 -0.030121875 -0.00125 0.000590625 6.91315293667e-14
144 1 -0.030121875 -0.00125 0.001771875 8.45154506934e-11
145 1 -0.030121875 -0.00125 0.002953125 9.86134773512e-15
146 1 -0.030121875 -0.00125 0.004134375 3.0764163114e-19
147 1 -0.030121875 -0.00125 0.005315625 1.1296529764e-20
148 1 -0.030121875 -0.00125 0.006496875 2.18118503968e-35
149 1 -0.030121875 -0.00125 0.007678125 2.15246272429e-28
150 1 -0.030121875 -0.00125 0.008859375 7.07881916974e-33
151 1 -0.030121875 -0.00125 0.010040625 5.40669388647e-23
152 1 -0.030121875 -0.00125 0.011221875 7.69977562201e-30
153 1 -0.030121875 -0.00125 0.012403125 1.10124729921e-13
154 1 -0.030121875 -0.00125 0.013584375 2.57518771658e-13
155 1 -0.030121875 -0.00125 0.014765625 3.81328240101e-13
156 1 -0.030121875 -0.00125 0.015946875 2.18203092907e-14
157 1 -0.030121875 -0.00125 0.017128125 3.66545583899e-11
158 1 -0.030121875 -0.00125 0.018309375 7.8682428152e-15
159 1 -0.030121875 -0.00125 0.019490625 4.5376259166e-23
160 1 -0.030121875 -0.00125 0.020671875 4.45305152101e-26
161 1 -0.028940625 -0.00125 -0.021853125 1.36230595963e-07
162 1 -0.028940625 -0.00125 -0.020671875 5.76056562827e-13
163 1 -0.028940625 -0.00125 -0.019490625 7.09486253473e-10
164 1 -0.028940625 -0.00125 -0.018309375 1.90115903233e-13
165 1 -0.028940625 -0.00125 -0.017128125 2.64699441514e-13
166 1 -0.028940625 -0.00125 -0.015946875 2.01057414987e-11
167 1 -0.028940625 -0.00125 -0.014765625 8.78678922306e-12
168 1 -0.028940625 -0.00125 -0.013584375 2.56584838924e-16
169 1 -0.028940625 -0.00125 -0.012403125 2.43400410571e-25
170 1 -0.028940625 -0.00125 -0.011221875 1.13807347388e-23
171 1 -0.028940625 -0.00125 -0.010040625 8.32654291523e-21
172 1 -0.028940625 -0.00125 -0.008859375 7.56305069465e-25
173 1 -0.028940625 -0.00125 -0.007678125 1.0058143149e-18
174 1 -0.028940625 -0.00125 -0.006496875 8.72206505257e-14
175 1 -0.028940625 -0.00125 -0.005315625 1.00980378711e-14
176 1 -0.028940625 -0.00125 -0.004134375 5.7082757325e-13
177 1 -0.028940625 -0.00125 -0.002953125 1.87080663496e-13
178 1 -0.028940625 -0.00125 -0.001771875 4.03675452109e-13
179 1 -0.028940625 -0.00125 -0.000590625 5.26398546088e-11
180 1 -0.028940625 -0.00125 0.000590625 2.87349056793e-11
181 1 -0.028940625 -0.00125 0.001771875 3.29697846288e-10
182 1 -0.028940625 -0.00125 0.002953125 1.74940842407e-10
183 1 -0.028940625 -0.00125 0.004134375 4.65556934606e-15
184 1 -0.028940625 -0.00125 0.005315625 9.56897841066e-24
185 1 -0.028940625 -0.00125 0.006496875 2.87218795468e-19
186 1 -0.028940625 -0.00125 0.007678125 1.56011208476e-29
187 1 -0.028940625 -0.00125 0.008859375 2.13760234717e-31
188 1 -0.028940625 -0.00125 0.010040625 3.71488730449e-34
189 1 -0.028940625 -0.00125 0.011221875 4.7555727024e-25
190 1 -0.028940625 -0.00125 0.012403125 8.35109010607e-25
191 1 -0.028940625 -0.00125 0.013584375 1.6395267404e-23
192 1 -0.028940625 -0.00125 0.014765625 3.84207147631e-17
193 1 -0.028940625 -0.00125 0.015946875 1.69373488835e-09
194 1 -0.028940625 -0.00125 0.017128125 3.35516796526e-10
195 1 -0.028940625 -0.00125 0.018309375 3.12656775934e-14
196 1 -0.028940625 -0.00125 0.019490625 1.75063794452e-25
197 1 -0.028940625 -0.00125 0.020671875 2.77482803354e-25
198 1 -0.028940625 -0.00125 0.021853125 9.30029287208e-19
199 1 -0.027759375 -0.00125 -0.024215625 9.61600546205e-25
200 1 -0.027759375 -0.00125 -0.023034375 1.14507776543e-18
201 1 -0.027759375 -0.00125 -0.021853125 3.94326973796e-05
202 1 -0.027759375 -0.00125 -0.020671875 5.06559289511e-11
203 1 -0.027759375 -0.00125 -0.019490625 8.36051525463e-12
204 1 -0.027759375 -0.00125 -0.018309375 2.9601252275e-10
205 1 -0.027759375 -0.00125 -0.017128125 1.03647259765e-09
206 1 -0.027759375 -0.00125 -0.015946875 7.97063449136e-12
207 1 -0.027759375 -0.00125 -0.014765625 1.76876935183e-14
208 1 -0.027759375 -0.00125 -0.013584375 8.2123124243e-23
209 1 -0.027759375 -0.00125 -0.012403125 1.46707348204e-18
210 1 -0.027759375 -0.00125 -0.011221875 8.45784762162e-28
211 1 -0.027759375 -0.00125 -0.010040625 6.96665165484e-18
212 1 -0.027759375 -0.00125 -0.008859375 2.79657404481e-22
213 1 -0.027759375 -0.00125 -0.007678125 1.87885708585e-13
214 1 -0.027759375 -0.00125 -0.006496875 4.03984492591e-12
215 1 -0.027759375 -0.00125 -0.005315625 1.39081631771e-09
216 1 -0.027759375 -0.00125 -0.004134375 9.16062438632e-09
217 1 -0.027759375 -0.00125 -0.002953125 2.10228433511e-06
218 1 -0.027759375 -0.00125 -0.001771875 1.71681798738e-08
219 1 -0.027759375 -0.00125 -0.000590625 0.00012303351874
220 1 -0.027759375 -0.00125 0.000590625 1.38845138558e-06
221 1 -0.027759375 -0.00125 0.001771875 1.07002591034e-06
222 1 -0.027759375 -0.00125 0.002953125 2.90527861307e-11
223 1 -0.027759375 -0.00125 0.004134375 3.52589543139e-16
224 1 -0.027759375 -0.00125 0.005315625 1.41442351838e-17
225 1 -0.027759375 -0.00125 0.006496875 5.99625092384e-24
226 1 -0.027759375 -0.00125 0.007678125 2.82219105207e-30
227 1 -0.027759375 -0.00125 0.008859375 6.69876428516e-12
228 1 -0.027759375 -0.00125 0.010040625 2.86036839292e-15
229 1 -0.027759375 -0.00125 0.011221875 1.18015503748e-23
230 1 -0.027759375 -0.00125 0.012403125 7.03202972591e-14
231 1 -0.027759375 -0.00125 0.013584375 2.60694634016e-13
232 1 -0.027759375 -0.00125 0.014765625 1.271452477e-10
233 1 -0.027759375 -0.00125 0.015946875 3.33932092592e-10
234 1 -0.027759375 -0.00125 0.017128125 1.18813281363e-11
235 1 -0.027759375 -0.00125 0.018309375 4.34555261031e-09
236 1 -0.027759375 -0.00125 0.019490625 2.82764612639e-15
237 1 -0.027759375 -0.00125 0.020671875 2.88677191145e-26
238 1 -0.027759375 -0.00125 0.021853125 1.64227797857e-14
239 1 -0.027759375 -0.00125 0.023034375 3.04133877518e-26
240 1 -0.027759375 -0.00125 0.024215625 5.25537084165e-94
241 1 -0.026578125 -0.00125 -0.026578125 1.01310000216e-32
242 1 -0.026578125 -0.00125 -0.025396875 7.35911945433e-39
243 1 -0.026578125 -0.00125 -0.024215625 2.91817935598e-29
244 1 -0.026578125 -0.00125 -0.023034375 6.39510143691e-17
245 1 -0.026578125 -0.00125 -0.021853125 2.77478625148e-09
246 1 -0.026578125 -0.00125 -0.020671875 1.77768484686e-07
247 1 -0.026578125 -0.00125 -0.019490625 9.50608378768e-07
248 1 -0.026578125 -0.00125 -0.018309375 1.73117937231e-07
249 1 -0.026578125 -0.00125 -0.017128125 3.44296128557e-08
250 1 -0.026578125 -0.00125 -0.015946875 2.71787165262e-10
251 1 -0.026578125 -0.00125 -0.014765625 5.99620654254e-17
252 1 -0.026578125 -0.00125 -0.013584375 5.57343739824e-16
253 1 -0.026578125 -0.00125 -0.012403125 1.47084343098e-18
254 1 -0.026578125 -0.00125 -0.011221875 9.14382994532e-15
255 1 -0.026578125 -0.00125 -0.010040625 3.66142201138e-16
256 1 -0.026578125 -0.00125 -0.008859375 9.82575610654e-12
257 1 -0.026578125 -0.00125 -0.007678125 1.67020290078e-06
258 1 -0.026578125 -0.00125 -0.006496875 4.76212642879e-06
259 1 -0.026578125 -0.00125 -0.005315625 0.000114224559346
260 1 -0.026578125 -0.00125 -0.004134375 0.000268523412012
261 1 -0.026578125 -0.00125 -0.002953125 0.000125507202804
262 1 -0.026578125 -0.00125 -0.001771875 0.000252959012925
263 1 -0.026578125 -0.00125 -0.000590625 0.000578853943847
264 1 -0.026578125 -0.00125 0.000590625 0.000142915873595
265 1 -0.026578125 -0.00125 0.001771875 0.000435127130086
266 1 -0.026578125 -0.00125 0.002953125 0.00077602830499
267 1 -0.026578125 -0.00125 0.004134375 8.32021154673e-07
268 1 -0.026578125 -0.00125 0.005315625 3.18473127047e-07
269 1 -0.026578125 -0.00125 0.006496875 2.79819906232e-20
270 1 -0.026578125 -0.00125 0.007678125 1.1732027646e-13
271 1 -0.026578125 -0.00125 0.008859375 5.71693992819e-13
272 1 -0.026578125 -0.00125 0.010040625 7.58697477622e-12
273 1 -0.026578125 -0.00125 0.011221875 1.64168932604e-11
274 1 -0.026578125 -0.00125 0.012403125 1.02224062908e-11
275 1 -0.026578125 -0.00125 0.013584375 2.70645256004e-07
276 1 -0.026578125 -0.00125 0.014765625 8.23769864649e-08
277 1 -0.026578125 -0.00125 0.015946875 2.38719274909e-07
278 1 -0.026578125 -0.00125 0.017128125 9.70605339398e-06
279 1 -0.026578125 -0.00125 0.018309375 1.25655131455e-05
280 1 -0.026578125 -0.00125 0.019490625 1.00268607192e-09
281 1 -0.026578125 -0.00125 0.020671875 2.24743745658e-17
282 1 -0.026578125 -0.00125 0.021853125 1.90456156767e-23
283 1 -0.026578125 -0.00125 0.023034375 1.93891879655e-48
284 1 -0.026578125 -0.00125 0.024215625 3.49425062999e-47
285 1 -0.026578125 -0.00125 0.025396875 8.34693198708e-46
286 1 -0.026578125 -0.00125 0.026578125 1.74513026029e-25
287 1 -0.025396875 -0.00125 -0.026578125 4.22886851385e-51
288 1 -0.025396875 -0.00125 -0.025396875 6.68761481706e-46
289 1 -0.025396875 -0.00125 -0.024215625 1.27726086148e-31
290 1 -0.025396875 -0.00125 -0.023034375 1.03632000496e-21
291 1 -0.025396875 -0.00125 -0.021853125 1.04125899799e-08
292 1 -0.025396875 -0.00125 -0.020671875 8.12517653614e-07
293 1 -0.025396875 -0.00125 -0.019490625 4.40603587269e-06
294 1 -0.025396875 -0.00125 -0.018309375 7.17161412248e-05
295 1 -0.025396875 -0.00125 -0.017128125 1.95037626064e-06
296 1 -0.025396875 -0.00125 -0.015946875 1.18076581482e-06
297 1 -0.025396875 -0.00125 -0.014765625 8.41031223969e-07
298 1 -0.025396875 -0.00125 -0.013584375 1.06838292838e-09
299 1 -0.025396875 -0.00125 -0.012403125 2.7307433932e-09
300 1 -0.025396875 -0.00125 -0.011221875 6.33929800499e-07
301 1 -0.025396875 -0.00125 -0.010040625 1.79586781848e-06
302 1 -0.025396875 -0.00125 -0.008859375 7.06052838205e-07
303 1 -0.025396875 -0.00125 -0.007678125 7.61057325077e-07
304 1 -0.025396875 -0.00125 -0.006496875 0.000185756860196
305 1 -0.025396875 -0.00125 -0.005315625 0.000465357377431
306 1 -0.025396875 -0.00125 -0.004134375 0.00140149856602
307 1 -0.025396875 -0.00125 -0.002953125 0.000160600391413
308 1 -0.025396875 -0.00125 -0.001771875 0.000191954768193
309 1 -0.025396875 -0.00125 -0.000590625 0.000258956545313
310 1 -0.025396875 -0.00125 0.000590625 0.00064571636913
311 1 -0.025396875 -0.00125 0.001771875 0.00113857055598
312 1 -0.025396875 -0.00125 0.002953125 0.000146534406052
313 1 -0.025396875 -0.00125 0.004134375 0.000526036115536
314 1 -0.025396875 -0.00125 0.005315625 0.00022842879462
315 1 -0.025396875 -0.00125 0.006496875 4.67235500251e-06
316 1 -0.025396875 -0.00125 0.007678125 3.14273448607e-07
317 1 -0.025396875 -0.00125 0.008859375 1.37944173106e-08
318 1 -0.025396875 -0.00125 0.010040625 1.84272739095e-12
319 1 -0.025396875 -0.00125 0.011221875 4.20869601876e-10
320 1 -0.025396875 -0.00125 0.012403125 7.18992369191e-09
321 1 -0.025396875 -0.00125 0.013584375 2.02176512469e-08
322 1 -0.025396875 -0.00125 0.014765625 6.90048079043e-06
323 1 -0.025396875 -0.00125 0.015946875 0.000103916252508
324 1 -0.025396875 -0.00125 0.017128125 0.000139130823416
325 1 -0.025396875 -0.00125 0.018309375 3.09016689403e-05
326 1 -0.025396875 -0.00125 0.019490625 5.69524315095e-07
327 1 -0.025396875 -0.00125 0.020671875 1.72183341827e-09
328 1 -0.025396875 -0.00125 0.021853125 4.26030566401e-22
329 1 -0.025396875 -0.00125 0.023034375 1.92892200574e-29
330 1 -0.025396875 -0.00125 0.024215625 3.09636532663e-41
331 1 -0.025396875 -0.00125 0.025396875 1.18910498131e-28
332 1 -0.025396875 -0.00125 0.026578125 1.02634604651e-86
333 1 -0.024215625 -0.00125 -0.027759375 3.62095815215e-25
334 1 -0.024215625 -0.00125 -0.026578125 6.00984549236e-28
335 1 -0.024215625 -0.00125 -0.025396875 1.13990374227e-26
336 1 -0.024215625 -0.00125 -0.024215625 3.21059414443e-14
337 1 -0.024215625 -0.00125 -0.023034375 2.15510510648e-11
338 1 -0.024215625 -0.00125 -0.021853125 4.72591214803e-06
339 1 -0.024215625 -0.00125 -0.020671875 1.05119813567e-05
340 1 -0.024215625 -0.00125 -0.019490625 1.64107081504e-05
341 1 -0.024215625 -0.00125 -0.018309375 1.66658418002e-06
342 1 -0.024215625 -0.00125 -0.017128125 6.6899625742e-06
343 1 -0.024215625 -0.00125 -0.015946875 1.98599992582e-05
344 1 -0.024215625 -0.00125 -0.014765625 2.69817670989e-05
345 1 -0.024215625 -0.00125 -0.013584375 4.61942663639e-06
346 1 -0.024215625 -0.00125 -0.012403125 4.07922642519e-06
347 1 -0.024215625 -0.00125 -0.011221875 2.46820602077e-06
348 1 -0.024215625 -0.00125 -0.010040625 4.71383330274e-05
349 1 -0.024215625 -0.00125 -0.008859375 7.26236980012e-06
350 1 -0.024215625 -0.00125 -0.007678125 3.27320846099e-06
351 1 -0.024215625 -0.00125 -0.006496875 0.000797232646183
352 1 -0.024215625 -0.00125 -0.005315625 0.00449526716598
353 1 -0.024215625 -0.00125 -0.004134375 0.00218358727195
354 1 -0.024215625 -0.00125 -0.002953125 0.000604155272016
355 1 -0.024215625 -0.00125 -0.001771875 0.000794048887893
356 1 -0.024215625 -0.00125 -0.000590625 0.00175314977262
357 1 -0.024215625 -0.00125 0.000590625 0.00238116544161
358 1 -0.024215625 -0.00125 0.001771875 0.00154169282563
359 1 -0.024215625 -0.00125 0.002953125 0.000266183952676
360 1 -0.024215625 -0.00125 0.004134375 0.00071009442231
361 1 -0.024215625 -0.00125 0.005315625 8.33564084304e-05
362 1 -0.024215625 -0.00125 0.006496875 1.16636995922e-05
363 1 -0.024215625 -0.00125 0.007678125 1.37662851608e-06
364 1 -0.024215625 -0.00125 0.008859375 1.11504754303e-07
365 1 -0.024215625 -0.00125 0.010040625 7.39400878371e-07
366 1 -0.024215625 -0.00125 0.011221875 1.09907089851e-08
367 1 -0.024215625 -0.00125 0.012403125 3.20483179144e-07
368 1 -0.024215625 -0.00125 0.013584375 3.53162924971e-06
369 1 -0.024215625 -0.00125 0.014765625 0.000129040037867
370 1 -0.024215625 -0.00125 0.015946875 6.17687156565e-05
371 1 -0.024215625 -0.00125 0.017128125 0.000159675636369
372 1 -0.024215625 -0.00125 0.018309375 3.25790966294e-05
373 1 -0.024215625 -0.00125 0.019490625 4.88574028973e-07
374 1 -0.024215625 -0.00125 0.020671875 7.31426959929e-09
375 1 -0.024215625 -0.00125 0.021853125 3.69779724361e-09
376 1 -0.024215625 -0.00125 0.023034375 4.42007838397e-18
377 1 -0.024215625 -0.00125 0.024215625 1.3546876664e-41
378 1 -0.024215625 -0.00125 0.025396875 1.53905355128e-41
379 1 -0.024215625 -0.00125 0.026578125 8.87645368286e-34
380 1 -0.024215625 -0.00125 0.027759375 2.32091317945e-30
381 1 -0.023034375 -0.00125 -0.027759375 5.79114253405e-48
382 1 -0.023034375 -0.00125 -0.026578125 1.78789987527e-16
383 1 -0.023034375 -0.00125 -0.025396875 9.66898425422e-14
384 1 -0.023034375 -0.00125 -0.024215625 2.84609280068e-11
385 1 -0.023034375 -0.00125 -0.023034375 2.20769550773e-05
386 1 -0.023034375 -0.00125 -0.021853125 5.18741445096e-06
387 1 -0.023034375 -0.00125 -0.020671875 0.000112513857034
388 1 -0.023034375 -0.00125 -0.019490625 0.000116956543462
389 1 -0.023034375 -0.00125 -0.018309375 3.69357087959e-05
390 1 -0.023034375 -0.00125 -0.017128125 0.000582242274241
391 1 -0.023034375 -0.00125 -0.015946875 0.00043661679548
392 1 -0.023034375 -0.00125 -0.014765625 9.27781262873e-05
393 1 -0.023034375 -0.00125 -0.013584375 2.43865688955e-05
394 1 -0.023034375 -0.00125 -0.012403125 1.2255240041e-05
395 1 -0.023034375 -0.00125 -0.011221875 7.48656810501e-06
396 1 -0.023034375 -0.00125 -0.010040625 0.0001947785211
397 1 -0.023034375 -0.00125 -0.008859375 3.33445097225e-05
398 1 -0.023034375 -0.00125 -0.007678125 8.083448572e-05
399 1 -0.023034375 -0.00125 -0.006496875 0.00125689951565
400 1 -0.023034375 -0.00125 -0.005315625 0.003777718919
401 1 -0.023034375 -0.00125 -0.004134375 0.00200458204375
402 1 -0.023034375 -0.00125 -0.002953125 0.00136824225647
403 1 -0.023034375 -0.00125 -0.001771875 0.0114425937543
404 1 -0.023034375 -0.00125 -0.000590625 0.00866216175236
405 1 -0.023034375 -0.00125 0.000590625 0.00876391480754
406 1 -0.023034375 -0.00125 0.001771875 0.00103353579274
407 1 -0.023034375 -0.00125 0.002953125 0.00329509601367
408 1 -0.023034375 -0.00125 0.004134375 0.000621126882977
409 1 -0.023034375 -0.00125 0.005315625 5.37739888267e-07
410 1 -0.023034375 -0.00125 0.006496875 0.000129159972272
411 1 -0.023034375 -0.00125 0.007678125 3.88662534648e-05
412 1 -0.023034375 -0.00125 0.008859375 1.16717282306e-06
413 1 -0.023034375 -0.00125 0.010040625 5.89041253957e-08
414 1 -0.023034375 -0.00125 0.011221875 2.0987327628e-07
415 1 -0.023034375 -0.00125 0.012403125 1.48981457121e-06
416 1 -0.023034375 -0.00125 0.013584375 5.88382895898e-05
417 1 -0.023034375 -0.00125 0.014765625 0.000430818723029
418 1 -0.023034375 -0.00125 0.015946875 0.000420028825745
419 1 -0.023034375 -0.00125 0.017128125 0.000222515887461
420 1 -0.023034375 -0.00125 0.018309375 0.00106342143936
421 1 -0.023034375 -0.00125 0.019490625 0.000272878107795
422 1 -0.023034375 -0.00125 0.020671875 9.15187988993e-05
423 1 -0.023034375 -0.00125 0.021853125 5.76247294363e-07
424 1 -0.023034375 -0.00125 0.023034375 1.29658630013e-08
425 1 -0.023034375 -0.00125 0.024215625 5.98283368479e-22
426 1 -0.023034375 -0.00125 0.025396875 2.47596459733e-30
427 1 -0.023034375 -0.00125 0.026578125 5.05283872972e-26
428 1 -0.023034375 -0.00125 0.027759375 8.49531072304e-16
429 1 -0.021853125 -0.00125 -0.028940625 2.81630700945e-16
430 1 -0.021853125 -0.00125 -0.027759375 7.66340522419e-15
431 1 -0.021853125 -0.00125 -0.026578125 9.91408924303e-18
432 1 -0.021853125 -0.00125 -0.025396875 1.27096542626e-08
433 1 -0.021853125 -0.00125 -0.024215625 4.62797654116e-06
434 1 -0.021853125 -0.00125 -0.023034375 3.37882430162e-05
435 1 -0.021853125 -0.00125 -0.021853125 9.63785243018e-05
436 1 -0.021853125 -0.00125 -0.020671875 0.000130277917135
437 1 -0.021853125 -0.00125 -0.019490625 0.000352481820315
438 1 -0.021853125 -0.00125 -0.018309375 6.26981281033e-05
439 1 -0.021853125 -0.00125 -0.017128125 0.00109124349821
440 1 -0.021853125 -0.00125 -0.015946875 0.00350962322121
441 1 -0.021853125 -0.00125 -0.014765625 0.00273205426573
442 1 -0.021853125 -0.00125 -0.013584375 0.00130167801438
443 1 -0.021853125 -0.00125 -0.012403125 0.000243659732893
444 1 -0.021853125 -0.00125 -0.011221875 0.000271502067423
445 1 -0.021853125 -0.00125 -0.010040625 0.000359765733274
446 1 -0.021853125 -0.00125 -0.008859375 0.000181219285366
447 1 -0.021853125 -0.00125 -0.007678125 0.00159850643683
448 1 -0.021853125 -0.00125 -0.006496875 0.00187120198205
449 1 -0.021853125 -0.00125 -0.005315625 0.00204188397022
450 1 -0.021853125 -0.00125 -0.004134375 0.00310755007671
451 1 -0.021853125 -0.00125 -0.002953125 0.00151967832036
452 1 -0.021853125 -0.00125 -0.001771875 0.00214626524966
453 1 -0.021853125 -0.00125 -0.000590625 0.024898648116
454 1 -0.021853125 -0.00125 0.000590625 0.00602093982476
455 1 -0.021853125 -0.00125 0.001771875 0.000717555185045
456 1 -0.021853125 -0.00125 0.002953125 0.0020813780444
457 1 -0.021853125 -0.00125 0.004134375 0.00448073181211
458 1 -0.021853125 -0.00125 0.005315625 0.00352487798602
459 1 -0.021853125 -0.00125 0.006496875 0.000505351144228
460 1 -0.021853125 -0.00125 0.007678125 3.25714336272e-05
461 1 -0.021853125 -0.00125 0.008859375 8.77739072288e-05
462 1 -0.021853125 -0.00125 0.010040625 1.46997836455e-05
463 1 -0.021853125 -0.00125 0.011221875 2.39047152593e-05
464 1 -0.021853125 -0.00125 0.012403125 0.000182444231196
465 1 -0.021853125 -0.00125 0.013584375 0.000147607334781
466 1 -0.021853125 -0.00125 0.014765625 0.00152578075439
467 1 -0.021853125 -0.00125 0.015946875 0.00284351666086
468 1 -0.021853125 -0.00125 0.017128125 0.00253063535482
469 1 -0.021853125 -0.00125 0.018309375 0.00385888413552
470 1 -0.021853125 -0.00125 0.019490625 0.00176587197848
471 1 -0.021853125 -0.00125 0.020671875 0.000289162918999
472 1 -0.021853125 -0.00125 0.021853125 6.67906308427e-05
473 1 -0.021853125 -0.00125 0.023034375 1.71492669934e-07
474 1 -0.021853125 -0.00125 0.024215625 2.94816496276e-11
475 1 -0.021853125 -0.00125 0.025396875 1.94868710122e-12
476 1 -0.021853125 -0.00125 0.026578125 3.28421587729e-18
477 1 -0.021853125 -0.00125 0.027759375 7.94642850674e-13
478 1 -0.021853125 -0.00125 0.028940625 3.12832692344e-14
479 1 -0.020671875 -0.00125 -0.030121875 2.28677855025e-15
480 1 -0.020671875 -0.00125 -0.028940625 2.82118837015e-13
481 1 -0.020671875 -0.00125 -0.027759375 1.18817547365e-16
482 1 -0.020671875 -0.00125 -0.026578125 6.5090670595e-11
483 1 -0.020671875 -0.00125 -0.025396875 2.91307817796e-12
484 1 -0.020671875 -0.00125 -0.024215625 1.4549969245e-07
485 1 -0.020671875 -0.00125 -0.023034375 0.000141836396593
486 1 -0.020671875 -0.00125 -0.021853125 0.000414427266268
487 1 -0.020671875 -0.00125 -0.020671875 0.000430990488016
488 1 -0.020671875 -0.00125 -0.019490625 0.0044687808648
489 1 -0.020671875 -0.00125 -0.018309375 0.00315974991085
490 1 -0.020671875 -0.00125 -0.017128125 0.00412063047078
491 1 -0.020671875 -0.00125 -0.015946875 0.0056616308745
492 1 -0.020671875 -0.00125 -0.014765625 0.00313456913753
493 1 -0.020671875 -0.00125 -0.013584375 0.00124987887045
494 1 -0.020671875 -0.00125 -0.012403125 0.000493106279336
495 1 -0.020671875 -0.00125 -0.011221875 0.000183771023074
496 1 -0.020671875 -0.00125 -0.010040625 0.00116557103801
497 1 -0.020671875 -0.00125 -0.008859375 8.90883916301e-05
498 1 -0.020671875 -0.00125 -0.007678125 0.000630026572957
499 1 -0.020671875 -0.00125 -0.006496875 0.00224214651036
500 1 -0.020671875 -0.00125 -0.005315625 0.00239372546662
501 1 -0.020671875 -0.00125 -0.004134375 0.0152642987458
502 1 -0.020671875 -0.00125 -0.002953125 0.00450761686421
503 1 -0.020671875 -0.00125 -0.001771875 0.0273752956922
504 1 -0.020671875 -0.00125 -0.000590625 0.0208200089536
505 1 -0.020671875 -0.00125 0.000590625 0.0186569398546
506 1 -0.020671875 -0.00125 0.001771875 0.01014138869
507 1 -0.020671875 -0.00125 0.002953125 0.00120534191064
508 1 -0.020671875 -0.00125 0.004134375 0.00266191982849
509 1 -0.020671875 -0.00125 0.005315625 0.00365095048412
510 1 -0.020671875 -0.00125 0.006496875 0.000911385508178
511 1 -0.020671875 -0.00125 0.007678125 0.000136377627764