ITEM: TIMESTEP
0
ITEM: NUMBER OF ATOMS
3080
ITEM: BOX BOUNDS ss ss ss
-3.7007399999999996e-02 3.7007399999999996e-02
-2.0002499999999999e-03 2.5000000000000004e-07
-3.7007399999999996e-02 3.7007399999999996e-02
ITEM: ATOMS id type x y z c_1
0 1 -0.037209375 -0.00125 -0.000590625 0.061766368562
1 1 -0.036028125 -0.00125 -0.007678125 7.25104787395e-08
2 1 -0.036028125 -0.00125 -0.006496875 7.53538932097e-05
3 1 -0.036028125 -0.00125 -0.005315625 0.000214570087878
4 1 -0.036028125 -0.00125 -0.004134375 0.000109303351847
5 1 -0.036028125 -0.00125 -0.002953125 0.00188431479687
6 1 -0.036028125 -0.00125 -0.001771875 1.25804543334e-06
7 1 -0.036028125 -0.00125 -0.000590625 0.00975636695634
8 1 -0.036028125 -0.00125 0.000590625 0.000855056668595
9 1 -0.036028125 -0.00125 0.001771875 0.00773782123471
10 1 -0.036028125 -0.00125 0.002953125 0.000267347451597
11 1 -0.036028125 -0.00125 0.004134375 0.00650046731892
12 1 -0.036028125 -0.00125 0.005315625 2.04903909513e-07
13 1 -0.036028125 -0.00125 0.006496875 0.00347570828198
14 1 -0.036028125 -0.00125 0.007678125 0.000202560092853
15 1 -0.034846875 -0.00125 -0.011221875 1.9714649693e-11
16 1 -0.034846875 -0.00125 -0.010040625 1.92799276806e-06
17 1 -0.034846875 -0.00125 -0.008859375 4.70699037309e-14
18 1 -0.034846875 -0.00125 -0.007678125 1.86332612202e-10
19 1 -0.034846875 -0.00125 -0.006496875 1.37642585957e-46
20 1 -0.034846875 -0.00125 -0.005315625 2.10969160849e-21
21 1 -0.034846875 -0.00125 -0.004134375 2.8874277966e-05
22 1 -0.034846875 -0.00125 -0.002953125 1.48930290724e-06
23 1 -0.034846875 -0.00125 -0.001771875 7.27237590674e-06
24 1 -0.034846875 -0.00125 -0.000590625 0.00175329026779
25 1 -0.034846875 -0.00125 0.000590625 0.00230983879957
26 1 -0.034846875 -0.00125 0.001771875 0.000697822990177
27 1 -0.034846875 -0.00125 0.002953125 1.16819512923e-08
28 1 -0.034846875 -0.00125 0.004134375 3.71122282578e-09
29 1 -0.034846875 -0.00125 0.005315625 1.05911547312e-06
30 1 -0.034846875 -0.00125 0.006496875 1.95063059965e-06
31 1 -0.034846875 -0.00125 0.007678125 0.00308234791837
32 1 -0.034846875 -0.00125 0.008859375 0.0316169833311
33 1 -0.034846875 -0.00125 0.010040625 0.000338154027941
34 1 -0.034846875 -0.00125 0.011221875 0.0325664889459
35 1 -0.033665625 -0.00125 -0.013584375 1.76018996528e-11
36 1 -0.033665625 -0.00125 -0.012403125 0.000100531223569
37 1 -0.033665625 -0.00125 -0.011221875 5.70879376165e-08
38 1 -0.033665625 -0.00125 -0.010040625 0.00107387470227
39 1 -0.033665625 -0.00125 -0.008859375 7.51311143337e-06
40 1 -0.033665625 -0.00125 -0.007678125 5.90437160645e-16
41 1 -0.033665625 -0.00125 -0.006496875 6.88990367536e-39
42 1 -0.033665625 -0.00125 -0.005315625 5.18832965259e-12
43 1 -0.033665625 -0.00125 -0.004134375 4.01600341631e-11
44 1 -0.033665625 -0.00125 -0.002953125 0.000456617771748
45 1 -0.033665625 -0.00125 -0.001771875 0.000134198816241
46 1 -0.033665625 -0.00125 -0.000590625 0.0119394514294
47 1 -0.033665625 -0.00125 0.000590625 0.00338092790878
48 1 -0.033665625 -0.00125 0.001771875 0.000355297764838
49 1 -0.033665625 -0.00125 0.002953125 2.98924630831e-06
50 1 -0.033665625 -0.00125 0.004134375 0.000144147222033
51 1 -0.033665625 -0.00125 0.005315625 2.56582813033e-05
52 1 -0.033665625 -0.00125 0.006496875 7.487265205e-05
53 1 -0.033665625 -0.00125 0.007678125 0.00323765775986
54 1 -0.033665625 -0.00125 0.008859375 0.037758897063
55 1 -0.033665625 -0.00125 0.010040625 0.0123506475444
56 1 -0.033665625 -0.00125 0.011221875 0.0208229290923
57 1 -0.033665625 -0.00125 0.012403125 0.0312435345499
58 1 -0.033665625 -0.00125 0.013584375 0.00156158409323
59 1 -0.032484375 -0.00125 -0.018309375 3.47440991042e-38
60 1 -0.032484375 -0.00125 -0.017128125 1.44615290712e-16
61 1 -0.032484375 -0.00125 -0.015946875 1.48310092742e-16
62 1 -0.032484375 -0.00125 -0.014765625 4.32740953276e-12
63 1 -0.032484375 -0.00125 -0.013584375 4.83081603238e-11
64 1 -0.032484375 -0.00125 -0.012403125 7.14186238346e-16
65 1 -0.032484375 -0.00125 -0.011221875 1.47309711031e-05
66 1 -0.032484375 -0.00125 -0.010040625 3.92482795029e-09
67 1 -0.032484375 -0.00125 -0.008859375 3.30829759715e-05
68 1 -0.032484375 -0.00125 -0.007678125 0.000237373624349
69 1 -0.032484375 -0.00125 -0.006496875 2.20471063148e-15
70 1 -0.032484375 -0.00125 -0.005315625 2.23494402081e-08
71 1 -0.032484375 -0.00125 -0.004134375 1.57999358324e-05
72 1 -0.032484375 -0.00125 -0.002953125 0.00017230471144
73 1 -0.032484375 -0.00125 -0.001771875 0.000102847739456
74 1 -0.032484375 -0.00125 -0.000590625 0.0200327187308
75 1 -0.032484375 -0.00125 0.000590625 0.0216964443958
76 1 -0.032484375 -0.00125 0.001771875 0.0101739975962
77 1 -0.032484375 -0.00125 0.002953125 9.51542304165e-05
78 1 -0.032484375 -0.00125 0.004134375 0.000129158827203
79 1 -0.032484375 -0.00125 0.005315625 0.0265586675863
80 1 -0.032484375 -0.00125 0.006496875 8.70895891041e-05
81 1 -0.032484375 -0.00125 0.007678125 0.114289577034
82 1 -0.032484375 -0.00125 0.008859375 0.000596466640641
83 1 -0.032484375 -0.00125 0.010040625 0.0104243913152
84 1 -0.032484375 -0.00125 0.011221875 0.095917621168
85 1 -0.032484375 -0.00125 0.012403125 0.0094778050268
86 1 -0.032484375 -0.00125 0.013584375 0.00104952515481
87 1 -0.032484375 -0.00125 0.014765625 0.000684562904364
88 1 -0.032484375 -0.00125 0.015946875 0.115932155134
89 1 -0.032484375 -0.00125 0.017128125 0.0369006650786
90 1 -0.032484375 -0.00125 0.018309375 0.131369549063
91 1 -0.031303125 -0.00125 -0.019490625 5.49211809825e-14
92 1 -0.031303125 -0.00125 -0.018309375 5.68505327471e-10
93 1 -0.031303125 -0.00125 -0.017128125 5.51693400483e-22
94 1 -0.031303125 -0.00125 -0.015946875 5.50953921612e-28
95 1 -0.031303125 -0.00125 -0.014765625 3.0299285234e-10
96 1 -0.031303125 -0.00125 -0.013584375 1.53171023078e-21
97 1 -0.031303125 -0.00125 -0.012403125 9.33934281434e-15
98 1 -0.031303125 -0.00125 -0.011221875 5.07015199418e-08
99 1 -0.031303125 -0.00125 -0.010040625 4.11040857664e-05
100 1 -0.031303125 -0.00125 -0.008859375 0.000189896129319
101 1 -0.031303125 -0.00125 -0.007678125 4.27792717813e-05
102 1 -0.031303125 -0.00125 -0.006496875 8.32222723579e-07
103 1 -0.031303125 -0.00125 -0.005315625 9.06058065702e-07
104 1 -0.031303125 -0.00125 -0.004134375 8.51127414701e-08
105 1 -0.031303125 -0.00125 -0.002953125 0.000428665420374
106 1 -0.031303125 -0.00125 -0.001771875 0.0159911943668
107 1 -0.031303125 -0.00125 -0.000590625 0.0107307372876
108 1 -0.031303125 -0.00125 0.000590625 0.00296065540964
109 1 -0.031303125 -0.00125 0.001771875 0.0195114939502
110 1 -0.031303125 -0.00125 0.002953125 0.0113491817676
111 1 -0.031303125 -0.00125 0.004134375 3.97584415104e-05
112 1 -0.031303125 -0.00125 0.005315625 0.00332828502011
113 1 -0.031303125 -0.00125 0.006496875 0.0288698149616
114 1 -0.031303125 -0.00125 0.007678125 0.0229237153266
115 1 -0.031303125 -0.00125 0.008859375 0.00159250011123
116 1 -0.031303125 -0.00125 0.010040625 0.0023823724516
117 1 -0.031303125 -0.00125 0.011221875 0.0432843592112
118 1 -0.031303125 -0.00125 0.012403125 0.112615187985
119 1 -0.031303125 -0.00125 0.013584375 0.0138915696967
120 1 -0.031303125 -0.00125 0.014765625 0.0748770857164
121 1 -0.031303125 -0.00125 0.015946875 0.0889063286694
122 1 -0.031303125 -0.00125 0.017128125 0.067391107435
123 1 -0.031303125 -0.00125 0.018309375 0.13943254128
124 1 -0.031303125 -0.00125 0.019490625 0.00593953366781
125 1 -0.030121875 -0.00125 -0.020671875 6.30370704275e-117
126 1 -0.030121875 -0.00125 -0.019490625 3.02258107164e-48
127 1 -0.030121875 -0.00125 -0.018309375 6.32765819657e-23
128 1 -0.030121875 -0.00125 -0.017128125 3.52606575879e-16
129 1 -0.030121875 -0.00125 -0.015946875 1.3182556942e-66
130 1 -0.030121875 -0.00125 -0.014765625 2.35963577128e-24
131 1 -0.030121875 -0.00125 -0.013584375 2.61788678658e-13
132 1 -0.030121875 -0.00125 -0.012403125 6.3277823838e-07
133 1 -0.030121875 -0.00125 -0.011221875 9.15528124439e-05
134 1 -0.030121875 -0.00125 -0.010040625 2.82338884242e-05
135 1 -0.030121875 -0.00125 -0.008859375 3.82710862175e-05
136 1 -0.030121875 -0.00125 -0.007678125 0.00615270236788
137 1 -0.030121875 -0.00125 -0.006496875 0.00144957155026
138 1 -0.030121875 -0.00125 -0.005315625 0.00122392770068
139 1 -0.030121875 -0.00125 -0.004134375 0.0173100569284
140 1 -0.030121875 -0.00125 -0.002953125 0.0180702732826
141 1 -0.030121875 -0.00125 -0.001771875 0.0736172722105
142 1 -0.030121875 -0.00125 -0.000590625 0.0896597006699
143 1 -0.030121875 -0.00125 0.000590625 0.00369993986997
144 1 -0.030121875 -0.00125 0.001771875 0.0333271044755
145 1 -0.030121875 -0.00125 0.002953125 0.00868733268531
146 1 -0.030121875 -0.00125 0.004134375 0.000225918934226
147 1 -0.030121875 -0.00125 0.005315625 0.0108160330276
148 1 -0.030121875 -0.00125 0.006496875 0.00587417594756
149 1 -0.030121875 -0.00125 0.007678125 0.0163660701771
150 1 -0.030121875 -0.00125 0.008859375 0.0138452208604
151 1 -0.030121875 -0.00125 0.010040625 0.000424420310968
152 1 -0.030121875 -0.00125 0.011221875 0.015926497823
153 1 -0.030121875 -0.00125 0.012403125 0.0692848297646
154 1 -0.030121875 -0.00125 0.013584375 0.0821806404899
155 1 -0.030121875 -0.00125 0.014765625 0.0827739432364
156 1 -0.030121875 -0.00125 0.015946875 0.218440763304
157 1 -0.030121875 -0.00125 0.017128125 0.0899810381679
158 1 -0.030121875 -0.00125 0.018309375 0.0714153110094
159 1 -0.030121875 -0.00125 0.019490625 0.0338328401456
160 1 -0.030121875 -0.00125 0.020671875 0.0291142908653
161 1 -0.028940625 -0.00125 -0.021853125 1.53772350838e-23
162 1 -0.028940625 -0.00125 -0.020671875 1.29393922125e-26
163 1 -0.028940625 -0.00125 -0.019490625 1.76349226039e-13
164 1 -0.028940625 -0.00125 -0.018309375 3.45912014351e-38
165 1 -0.028940625 -0.00125 -0.017128125 3.48503819494e-19
166 1 -0.028940625 -0.00125 -0.015946875 6.4552477301e-15
167 1 -0.028940625 -0.00125 -0.014765625 2.3413837032e-08
168 1 -0.028940625 -0.00125 -0.013584375 9.96502009229e-10
169 1 -0.028940625 -0.00125 -0.012403125 1.8799838593e-10
170 1 -0.028940625 -0.00125 -0.011221875 2.24361441861e-10
171 1 -0.028940625 -0.00125 -0.010040625 0.000220898098493
172 1 -0.028940625 -0.00125 -0.008859375 1.90802966433e-07
173 1 -0.028940625 -0.00125 -0.007678125 0.000784345676141
174 1 -0.028940625 -0.00125 -0.006496875 0.0015193353998
175 1 -0.028940625 -0.00125 -0.005315625 0.0136973092146
176 1 -0.028940625 -0.00125 -0.004134375 0.00786726164767
177 1 -0.028940625 -0.00125 -0.002953125 0.0122918882906
178 1 -0.028940625 -0.00125 -0.001771875 0.00302172890593
179 1 -0.028940625 -0.00125 -0.000590625 0.0498721888861
180 1 -0.028940625 -0.00125 0.000590625 0.0119693300355
181 1 -0.028940625 -0.00125 0.001771875 0.017028338076
182 1 -0.028940625 -0.00125 0.002953125 0.0013742473061
183 1 -0.028940625 -0.00125 0.004134375 0.0854513942185
184 1 -0.028940625 -0.00125 0.005315625 0.00251997260922
185 1 -0.028940625 -0.00125 0.006496875 0.0661992960623
186 1 -0.028940625 -0.00125 0.007678125 0.00837203604816
187 1 -0.028940625 -0.00125 0.008859375 0.0233346031069
188 1 -0.028940625 -0.00125 0.010040625 0.0208615414285
189 1 -0.028940625 -0.00125 0.011221875 0.0168651166445
190 1 -0.028940625 -0.00125 0.012403125 0.0195432190105
191 1 -0.028940625 -0.00125 0.013584375 0.031339401593
192 1 -0.028940625 -0.00125 0.014765625 0.0148897999062
193 1 -0.028940625 -0.00125 0.015946875 0.183180756738
194 1 -0.028940625 -0.00125 0.017128125 0.128081973031
195 1 -0.028940625 -0.00125 0.018309375 0.0382516825099
196 1 -0.028940625 -0.00125 0.019490625 0.00139298444261
197 1 -0.028940625 -0.00125 0.020671875 0.0333659830864
198 1 -0.028940625 -0.00125 0.021853125 0.257253507662
199 1 -0.027759375 -0.00125 -0.024215625 0.0
200 1 -0.027759375 -0.00125 -0.023034375 4.88832816439e-184
201 1 -0.027759375 -0.00125 -0.021853125 1.06872589374e-34
202 1 -0.027759375 -0.00125 -0.020671875 3.04480360665e-81
203 1 -0.027759375 -0.00125 -0.019490625 1.18031666896e-60
204 1 -0.027759375 -0.00125 -0.018309375 2.46006428126e-34
205 1 -0.027759375 -0.00125 -0.017128125 6.8710727148e-10
206 1 -0.027759375 -0.00125 -0.015946875 1.52896129266e-22
207 1 -0.027759375 -0.00125 -0.014765625 9.27903121113e-07
208 1 -0.027759375 -0.00125 -0.013584375 1.41655898129e-33
209 1 -0.027759375 -0.00125 -0.012403125 1.63216328564e-08
210 1 -0.027759375 -0.00125 -0.011221875 0.0064602704609
211 1 -0.027759375 -0.00125 -0.010040625 1.17369800644e-06
212 1 -0.027759375 -0.00125 -0.008859375 0.0010201985848
213 1 -0.027759375 -0.00125 -0.007678125 0.00064560741722
214 1 -0.027759375 -0.00125 -0.006496875 0.00916175420576
215 1 -0.027759375 -0.00125 -0.005315625 0.0309568034875
216 1 -0.027759375 -0.00125 -0.004134375 0.0137580788493
217 1 -0.027759375 -0.00125 -0.002953125 0.0332668537653
218 1 -0.027759375 -0.00125 -0.001771875 0.0501997068836
219 1 -0.027759375 -0.00125 -0.000590625 0.222431724471
220 1 -0.027759375 -0.00125 0.000590625 0.036107842083
221 1 -0.027759375 -0.00125 0.001771875 0.170363076802
222 1 -0.027759375 -0.00125 0.002953125 0.278416423883
223 1 -0.027759375 -0.00125 0.004134375 0.11932573977
224 1 -0.027759375 -0.00125 0.005315625 0.226202446123
225 1 -0.027759375 -0.00125 0.006496875 0.111294562199
226 1 -0.027759375 -0.00125 0.007678125 0.0258087330501
227 1 -0.027759375 -0.00125 0.008859375 0.0215505217446
228 1 -0.027759375 -0.00125 0.010040625 0.0502210465302
229 1 -0.027759375 -0.00125 0.011221875 0.115179636628
230 1 -0.027759375 -0.00125 0.012403125 0.0303406573851
231 1 -0.027759375 -0.00125 0.013584375 0.0199551539533
232 1 -0.027759375 -0.00125 0.014765625 0.0494279010251
233 1 -0.027759375 -0.00125 0.015946875 0.295662392028
234 1 -0.027759375 -0.00125 0.017128125 0.00579791948564
235 1 -0.027759375 -0.00125 0.018309375 0.224851983878
236 1 -0.027759375 -0.00125 0.019490625 0.0797276983766
237 1 -0.027759375 -0.00125 0.020671875 0.170543295171
238 1 -0.027759375 -0.00125 0.021853125 0.591214766747
239 1 -0.027759375 -0.00125 0.023034375 0.0666970618656
240 1 -0.027759375 -0.00125 0.024215625 0.0451832887367
241 1 -0.026578125 -0.00125 -0.026578125 4.40942647737e-209
242 1 -0.026578125 -0.00125 -0.025396875 0.0
243 1 -0.026578125 -0.00125 -0.024215625 3.85785754507e-225
244 1 -0.026578125 -0.00125 -0.023034375 5.6053416011e-185
245 1 -0.026578125 -0.00125 -0.021853125 3.16440948929e-187
246 1 -0.026578125 -0.00125 -0.020671875 8.44140992092e-170
247 1 -0.026578125 -0.00125 -0.019490625 4.99225803932e-28
248 1 -0.026578125 -0.00125 -0.018309375 1.39125702336e-19
249 1 -0.026578125 -0.00125 -0.017128125 1.67172475537e-11
250 1 -0.026578125 -0.00125 -0.015946875 9.94759991208e-14
251 1 -0.026578125 -0.00125 -0.014765625 2.24097482214e-07
252 1 -0.026578125 -0.00125 -0.013584375 2.15233243637e-05
253 1 -0.026578125 -0.00125 -0.012403125 0.0149817899915
254 1 -0.026578125 -0.00125 -0.011221875 0.00237100214917
255 1 -0.026578125 -0.00125 -0.010040625 0.0010492584057
256 1 -0.026578125 -0.00125 -0.008859375 1.84393760692e-05
257 1 -0.026578125 -0.00125 -0.007678125 0.0253122255137
258 1 -0.026578125 -0.00125 -0.006496875 0.15447137285
259 1 -0.026578125 -0.00125 -0.005315625 0.100332503713
260 1 -0.026578125 -0.00125 -0.004134375 0.205879216378
261 1 -0.026578125 -0.00125 -0.002953125 0.062014036247
262 1 -0.026578125 -0.00125 -0.001771875 0.0968348938744
263 1 -0.026578125 -0.00125 -0.000590625 0.136850958771
264 1 -0.026578125 -0.00125 0.000590625 0.0349476397545
265 1 -0.026578125 -0.00125 0.001771875 0.262993918471
266 1 -0.026578125 -0.00125 0.002953125 0.339340524002
267 1 -0.026578125 -0.00125 0.004134375 0.350744424172
268 1 -0.026578125 -0.00125 0.005315625 0.236427838686
269 1 -0.026578125 -0.00125 0.006496875 0.226713215149
270 1 -0.026578125 -0.00125 0.007678125 0.265451515409
271 1 -0.026578125 -0.00125 0.008859375 0.124327607585
272 1 -0.026578125 -0.00125 0.010040625 0.345548853987
273 1 -0.026578125 -0.00125 0.011221875 0.218117245269
274 1 -0.026578125 -0.00125 0.012403125 0.0745693333653
275 1 -0.026578125 -0.00125 0.013584375 0.0988366663085
276 1 -0.026578125 -0.00125 0.014765625 0.0744378305454
277 1 -0.026578125 -0.00125 0.015946875 0.0886489066722
278 1 -0.026578125 -0.00125 0.017128125 0.0813993797544
279 1 -0.026578125 -0.00125 0.018309375 0.092526112818
280 1 -0.026578125 -0.00125 0.019490625 0.254386058996
281 1 -0.026578125 -0.00125 0.020671875 0.311693219101
282 1 -0.026578125 -0.00125 0.021853125 0.588915083755
283 1 -0.026578125 -0.00125 0.023034375 0.258440445264
284 1 -0.026578125 -0.00125 0.024215625 0.184001042419
285 1 -0.026578125 -0.00125 0.025396875 0.00606351204309
286 1 -0.026578125 -0.00125 0.026578125 0.0114766685552
287 1 -0.025396875 -0.00125 -0.026578125 3.12439290151e-267
288 1 -0.025396875 -0.00125 -0.025396875 0.0
289 1 -0.025396875 -0.00125 -0.024215625 1.28067073389e-215
290 1 -0.025396875 -0.00125 -0.023034375 4.49929053583e-189
291 1 -0.025396875 -0.00125 -0.021853125 1.16344054247e-183
292 1 -0.025396875 -0.00125 -0.020671875 1.67793407183e-31
293 1 -0.025396875 -0.00125 -0.019490625 9.41617645931e-28
294 1 -0.025396875 -0.00125 -0.018309375 2.56575026002e-11
295 1 -0.025396875 -0.00125 -0.017128125 5.88649197971e-07
296 1 -0.025396875 -0.00125 -0.015946875 1.454504553e-14
297 1 -0.025396875 -0.00125 -0.014765625 5.94204541044e-06
298 1 -0.025396875 -0.00125 -0.013584375 6.51480197035e-05
299 1 -0.025396875 -0.00125 -0.012403125 0.0135424466263
300 1 -0.025396875 -0.00125 -0.011221875 0.0542673331003
301 1 -0.025396875 -0.00125 -0.010040625 0.0180039846464
302 1 -0.025396875 -0.00125 -0.008859375 0.0358341554641
303 1 -0.025396875 -0.00125 -0.007678125 0.0900402800577
304 1 -0.025396875 -0.00125 -0.006496875 0.078061659831
305 1 -0.025396875 -0.00125 -0.005315625 0.0847782331935
306 1 -0.025396875 -0.00125 -0.004134375 0.0789793502613
307 1 -0.025396875 -0.00125 -0.002953125 0.233877953828
308 1 -0.025396875 -0.00125 -0.001771875 0.08258470827
309 1 -0.025396875 -0.00125 -0.000590625 0.106736238725
310 1 -0.025396875 -0.00125 0.000590625 0.0772124117013
311 1 -0.025396875 -0.00125 0.001771875 0.252420402784
312 1 -0.025396875 -0.00125 0.002953125 0.377610120959
313 1 -0.025396875 -0.00125 0.004134375 0.463002431127
314 1 -0.025396875 -0.00125 0.005315625 0.360094701199
315 1 -0.025396875 -0.00125 0.006496875 0.442676838479
316 1 -0.025396875 -0.00125 0.007678125 0.280420154323
317 1 -0.025396875 -0.00125 0.008859375 0.427181367858
318 1 -0.025396875 -0.00125 0.010040625 0.211551363889
319 1 -0.025396875 -0.00125 0.011221875 0.308361553673
320 1 -0.025396875 -0.00125 0.012403125 0.194544083749
321 1 -0.025396875 -0.00125 0.013584375 0.230506953806
322 1 -0.025396875 -0.00125 0.014765625 0.194680556338
323 1 -0.025396875 -0.00125 0.015946875 0.136331618668
324 1 -0.025396875 -0.00125 0.017128125 0.0489954195647
325 1 -0.025396875 -0.00125 0.018309375 0.40248125374
326 1 -0.025396875 -0.00125 0.019490625 0.317546678342
327 1 -0.025396875 -0.00125 0.020671875 0.597020238946
328 1 -0.025396875 -0.00125 0.021853125 0.513192196899
329 1 -0.025396875 -0.00125 0.023034375 0.358802689285
330 1 -0.025396875 -0.00125 0.024215625 0.170348828068
331 1 -0.025396875 -0.00125 0.025396875 0.000624028059055
332 1 -0.025396875 -0.00125 0.026578125 0.0667649413985
333 1 -0.024215625 -0.00125 -0.027759375 2.76626651506e-108
334 1 -0.024215625 -0.00125 -0.026578125 4.43911541452e-84
335 1 -0.024215625 -0.00125 -0.025396875 3.63305109914e-228
336 1 -0.024215625 -0.00125 -0.024215625 9.57068523968e-73
337 1 -0.024215625 -0.00125 -0.023034375 0.0
338 1 -0.024215625 -0.00125 -0.021853125 5.33543749456e-65
339 1 -0.024215625 -0.00125 -0.020671875 2.65853236524e-72
340 1 -0.024215625 -0.00125 -0.019490625 1.63055370558e-16
341 1 -0.024215625 -0.00125 -0.018309375 1.63633184147e-15
342 1 -0.024215625 -0.00125 -0.017128125 3.67309863961e-07
343 1 -0.024215625 -0.00125 -0.015946875 0.0011942280638
344 1 -0.024215625 -0.00125 -0.014765625 0.00199885704708
345 1 -0.024215625 -0.00125 -0.013584375 8.83974021524e-07
346 1 -0.024215625 -0.00125 -0.012403125 0.054520013437
347 1 -0.024215625 -0.00125 -0.011221875 0.0602911204644
348 1 -0.024215625 -0.00125 -0.010040625 0.036607347445
349 1 -0.024215625 -0.00125 -0.008859375 0.0399102750621
350 1 -0.024215625 -0.00125 -0.007678125 0.0298975063859
351 1 -0.024215625 -0.00125 -0.006496875 0.132016017127
352 1 -0.024215625 -0.00125 -0.005315625 0.127746165815
353 1 -0.024215625 -0.00125 -0.004134375 0.124820144142
354 1 -0.024215625 -0.00125 -0.002953125 0.185351557225
355 1 -0.024215625 -0.00125 -0.001771875 0.295032991847
356 1 -0.024215625 -0.00125 -0.000590625 0.148083141772
357 1 -0.024215625 -0.00125 0.000590625 0.058274638878
358 1 -0.024215625 -0.00125 0.001771875 0.343823418138
359 1 -0.024215625 -0.00125 0.002953125 0.435990177228
360 1 -0.024215625 -0.00125 0.004134375 0.385867314662
361 1 -0.024215625 -0.00125 0.005315625 0.471810219602
362 1 -0.024215625 -0.00125 0.006496875 0.338221260476
363 1 -0.024215625 -0.00125 0.007678125 0.23463273058
364 1 -0.024215625 -0.00125 0.008859375 0.2435519451
365 1 -0.024215625 -0.00125 0.010040625 0.261549276232
366 1 -0.024215625 -0.00125 0.011221875 0.352724534052
367 1 -0.024215625 -0.00125 0.012403125 0.363397528004
368 1 -0.024215625 -0.00125 0.013584375 0.266648996752
369 1 -0.024215625 -0.00125 0.014765625 0.286323490931
370 1 -0.024215625 -0.00125 0.015946875 0.248571208743
371 1 -0.024215625 -0.00125 0.017128125 0.215790260527
372 1 -0.024215625 -0.00125 0.018309375 0.284821143833
373 1 -0.024215625 -0.00125 0.019490625 0.331981546958
374 1 -0.024215625 -0.00125 0.020671875 0.249184268231
375 1 -0.024215625 -0.00125 0.021853125 0.430320190177
376 1 -0.024215625 -0.00125 0.023034375 0.17214736002
377 1 -0.024215625 -0.00125 0.024215625 0.29644000042
378 1 -0.024215625 -0.00125 0.025396875 0.201267453248
379 1 -0.024215625 -0.00125 0.026578125 0.106565799195
380 1 -0.024215625 -0.00125 0.027759375 0.00879081774109
381 1 -0.023034375 -0.00125 -0.027759375 0.0
382 1 -0.023034375 -0.00125 -0.026578125 1.23451221295e-185
383 1 -0.023034375 -0.00125 -0.025396875 1.58721429915e-157
384 1 -0.023034375 -0.00125 -0.024215625 1.26913113733e-206
385 1 -0.023034375 -0.00125 -0.023034375 7.73221874163e-202
386 1 -0.023034375 -0.00125 -0.021853125 9.7640425802e-64
387 1 -0.023034375 -0.00125 -0.020671875 1.93035044891e-32
388 1 -0.023034375 -0.00125 -0.019490625 2.41213759046e-09
389 1 -0.023034375 -0.00125 -0.018309375 3.70849043065e-16
390 1 -0.023034375 -0.00125 -0.017128125 1.44535258217e-06
391 1 -0.023034375 -0.00125 -0.015946875 4.13695339286e-05
392 1 -0.023034375 -0.00125 -0.014765625 7.93979132993e-05
393 1 -0.023034375 -0.00125 -0.013584375 0.0098811266418
394 1 -0.023034375 -0.00125 -0.012403125 0.0676988398853
395 1 -0.023034375 -0.00125 -0.011221875 0.000211808699478
396 1 -0.023034375 -0.00125 -0.010040625 0.00183996105265
397 1 -0.023034375 -0.00125 -0.008859375 0.135910060858
398 1 -0.023034375 -0.00125 -0.007678125 0.0401370918298
399 1 -0.023034375 -0.00125 -0.006496875 0.021401288348
400 1 -0.023034375 -0.00125 -0.005315625 0.117007137358
401 1 -0.023034375 -0.00125 -0.004134375 0.24998742345
402 1 -0.023034375 -0.00125 -0.002953125 0.241511289035
403 1 -0.023034375 -0.00125 -0.001771875 0.341692811055
404 1 -0.023034375 -0.00125 -0.000590625 0.329460020398
405 1 -0.023034375 -0.00125 0.000590625 0.287565950754
406 1 -0.023034375 -0.00125 0.001771875 0.369153485488
407 1 -0.023034375 -0.00125 0.002953125 0.294463299814
408 1 -0.023034375 -0.00125 0.004134375 0.299762915782
409 1 -0.023034375 -0.00125 0.005315625 0.599810016909
410 1 -0.023034375 -0.00125 0.006496875 0.432567105547
411 1 -0.023034375 -0.00125 0.007678125 0.336103485425
412 1 -0.023034375 -0.00125 0.008859375 0.360364477136
413 1 -0.023034375 -0.00125 0.010040625 0.390429538002
414 1 -0.023034375 -0.00125 0.011221875 0.492838770252
415 1 -0.023034375 -0.00125 0.012403125 0.418330060709
416 1 -0.023034375 -0.00125 0.013584375 0.17411617615
417 1 -0.023034375 -0.00125 0.014765625 0.228123145699
418 1 -0.023034375 -0.00125 0.015946875 0.238886499911
419 1 -0.023034375 -0.00125 0.017128125 0.180422650892
420 1 -0.023034375 -0.00125 0.018309375 0.406021911712
421 1 -0.023034375 -0.00125 0.019490625 0.426018752211
422 1 -0.023034375 -0.00125 0.020671875 0.391552708165
423 1 -0.023034375 -0.00125 0.021853125 0.486499115735
424 1 -0.023034375 -0.00125 0.023034375 0.468678277327
425 1 -0.023034375 -0.00125 0.024215625 0.231268896704
426 1 -0.023034375 -0.00125 0.025396875 0.396217101824
427 1 -0.023034375 -0.00125 0.026578125 0.0475623237689
428 1 -0.023034375 -0.00125 0.027759375 0.275918694011
429 1 -0.021853125 -0.00125 -0.028940625 0.0
430 1 -0.021853125 -0.00125 -0.027759375 4.36410396234e-251
431 1 -0.021853125 -0.00125 -0.026578125 0.0
432 1 -0.021853125 -0.00125 -0.025396875 1.02013093376e-113
433 1 -0.021853125 -0.00125 -0.024215625 5.73404500338e-121
434 1 -0.021853125 -0.00125 -0.023034375 2.32746023467e-41
435 1 -0.021853125 -0.00125 -0.021853125 1.27044357273e-111
436 1 -0.021853125 -0.00125 -0.020671875 8.52671669015e-40
437 1 -0.021853125 -0.00125 -0.019490625 9.13634667773e-11
438 1 -0.021853125 -0.00125 -0.018309375 2.45353557867e-10
439 1 -0.021853125 -0.00125 -0.017128125 2.08621157974e-06
440 1 -0.021853125 -0.00125 -0.015946875 9.85808229869e-06
441 1 -0.021853125 -0.00125 -0.014765625 1.75629594899e-07
442 1 -0.021853125 -0.00125 -0.013584375 0.0359668041227
443 1 -0.021853125 -0.00125 -0.012403125 0.00557252265684
444 1 -0.021853125 -0.00125 -0.011221875 0.00259813293739
445 1 -0.021853125 -0.00125 -0.010040625 0.0023854734882
446 1 -0.021853125 -0.00125 -0.008859375 0.0208251755092
447 1 -0.021853125 -0.00125 -0.007678125 0.0390534195116
448 1 -0.021853125 -0.00125 -0.006496875 0.0783210261228
449 1 -0.021853125 -0.00125 -0.005315625 0.123811217655
450 1 -0.021853125 -0.00125 -0.004134375 0.389665217537
451 1 -0.021853125 -0.00125 -0.002953125 0.372716942228
452 1 -0.021853125 -0.00125 -0.001771875 0.404670530077
453 1 -0.021853125 -0.00125 -0.000590625 0.362686414411
454 1 -0.021853125 -0.00125 0.000590625 0.525034005436
455 1 -0.021853125 -0.00125 0.001771875 0.529336516723
456 1 -0.021853125 -0.00125 0.002953125 0.574205400649
457 1 -0.021853125 -0.00125 0.004134375 0.485087926748
458 1 -0.021853125 -0.00125 0.005315625 0.698132266744
459 1 -0.021853125 -0.00125 0.006496875 0.507828601261
460 1 -0.021853125 -0.00125 0.007678125 0.372871577838
461 1 -0.021853125 -0.00125 0.008859375 0.324168110529
462 1 -0.021853125 -0.00125 0.010040625 0.40692601774
463 1 -0.021853125 -0.00125 0.011221875 0.562394665687
464 1 -0.021853125 -0.00125 0.012403125 0.44533963013
465 1 -0.021853125 -0.00125 0.013584375 0.442803133688
466 1 -0.021853125 -0.00125 0.014765625 0.504835072986
467 1 -0.021853125 -0.00125 0.015946875 0.389575034472
468 1 -0.021853125 -0.00125 0.017128125 0.531398355778
469 1 -0.021853125 -0.00125 0.018309375 0.431317894326
470 1 -0.021853125 -0.00125 0.019490625 0.668020130756
471 1 -0.021853125 -0.00125 0.020671875 0.622520701232
472 1 -0.021853125 -0.00125 0.021853125 0.395405925399
473 1 -0.021853125 -0.00125 0.023034375 0.481016100927
474 1 -0.021853125 -0.00125 0.024215625 0.297655531885
475 1 -0.021853125 -0.00125 0.025396875 0.308673714774
476 1 -0.021853125 -0.00125 0.026578125 0.353377101542
477 1 -0.021853125 -0.00125 0.027759375 0.361441569852
478 1 -0.021853125 -0.00125 0.028940625 0.396362599752
479 1 -0.020671875 -0.00125 -0.030121875 0.0
480 1 -0.020671875 -0.00125 -0.028940625 0.0
481 1 -0.020671875 -0.00125 -0.027759375 0.0
482 1 -0.020671875 -0.00125 -0.026578125 0.0
483 1 -0.020671875 -0.00125 -0.025396875 0.0
484 1 -0.020671875 -0.00125 -0.024215625 0.0
485 1 -0.020671875 -0.00125 -0.023034375 6.21937117116e-165
486 1 -0.020671875 -0.00125 -0.021853125 9.72145881811e-17
487 1 -0.020671875 -0.00125 -0.020671875 2.42582511088e-21
488 1 -0.020671875 -0.00125 -0.019490625 1.44246814745e-05
489 1 -0.020671875 -0.00125 -0.018309375 2.12173958291e-41
490 1 -0.020671875 -0.00125 -0.017128125 4.76582256686e-06
491 1 -0.020671875 -0.00125 -0.015946875 1.28010879561e-20
492 1 -0.020671875 -0.00125 -0.014765625 0.00162775005433
493 1 -0.020671875 -0.00125 -0.013584375 0.0109750771831
494 1 -0.020671875 -0.00125 -0.012403125 0.0109972247866
495 1 -0.020671875 -0.00125 -0.011221875 0.00538971159528
496 1 -0.020671875 -0.00125 -0.010040625 0.00877303399719
497 1 -0.020671875 -0.00125 -0.008859375 0.0689446176467
498 1 -0.020671875 -0.00125 -0.007678125 0.0647462757496
499 1 -0.020671875 -0.00125 -0.006496875 0.216061395875
500 1 -0.020671875 -0.00125 -0.005315625 0.229065820587
501 1 -0.020671875 -0.00125 -0.004134375 0.176850384514
502 1 -0.020671875 -0.00125 -0.002953125 0.391717180222
503 1 -0.020671875 -0.00125 -0.001771875 0.381216508298
504 1 -0.020671875 -0.00125 -0.000590625 0.453742803702
505 1 -0.020671875 -0.00125 0.000590625 0.563278147375
506 1 -0.020671875 -0.00125 0.001771875 0.481229569788
507 1 -0.020671875 -0.00125 0.002953125 0.532567092048
508 1 -0.020671875 -0.00125 0.004134375 0.599129057457
509 1 -0.020671875 -0.00125 0.005315625 0.656575964442
510 1 -0.020671875 -0.00125 0.006496875 0.392141461743
511 1 -0.020671875 -0.00125 0.007678125 0.393442030021
512 1 -0.020671875 -0.00125 0.008859375 0.221507530208
513 1 -0.020671875 -0.00125 0.010040625 0.309349376541
514 1 -0.020671875 -0.00125 0.011221875 0.330645114406
515 1 -0.020671875 -0.00125 0.012403125 0.360532137549
516 1 -0.020671875 -0.00125 0.013584375 0.450610093559
517 1 -0.020671875 -0.00125 0.014765625 0.381845281778
518 1 -0.020671875 -0.00125 0.015946875 0.646188132189
519 1 -0.020671875 -0.00125 0.017128125 0.486309896094
520 1 -0.020671875 -0.00125 0.018309375 0.529034290723
521 1 -0.020671875 -0.00125 0.019490625 0.365400901984
522 1 -0.020671875 -0.00125 0.020671875 0.498780558303
523 1 -0.020671875 -0.00125 0.021853125 0.412403403234
524 1 -0.020671875 -0.00125 0.023034375 0.515040763195
525 1 -0.020671875 -0.00125 0.024215625 0.666443223725
526 1 -0.020671875 -0.00125 0.025396875 0.363856216402