ITEM: TIMESTEP
0
ITEM: NUMBER OF ATOMS
3080
ITEM: BOX BOUNDS ss ss ss
-3.7007399999999996e-02 3.7007399999999996e-02
-2.0002499999999999e-03 2.5000000000000004e-07
-3.7007399999999996e-02 3.7007399999999996e-02
ITEM: ATOMS id type x y z c_1
0 1 -0.037209375 -0.00125 -0.000590625 0.763084830681
1 1 -0.036028125 -0.00125 -0.007678125 1.30670414783e-10
2 1 -0.036028125 -0.00125 -0.006496875 9.8552196267e-22
3 1 -0.036028125 -0.00125 -0.005315625 1.74036472678e-44
4 1 -0.036028125 -0.00125 -0.004134375 3.40379350264e-25
5 1 -0.036028125 -0.00125 -0.002953125 9.24707795637e-05
6 1 -0.036028125 -0.00125 -0.001771875 0.0256262883803
7 1 -0.036028125 -0.00125 -0.000590625 0.0355380042019
8 1 -0.036028125 -0.00125 0.000590625 0.00713605918362
9 1 -0.036028125 -0.00125 0.001771875 0.0442624875795
10 1 -0.036028125 -0.00125 0.002953125 4.98653184803e-08
11 1 -0.036028125 -0.00125 0.004134375 3.40376720347e-27
12 1 -0.036028125 -0.00125 0.005315625 6.13085699789e-38
13 1 -0.036028125 -0.00125 0.006496875 2.20393732625e-23
14 1 -0.036028125 -0.00125 0.007678125 1.92283205101e-15
15 1 -0.034846875 -0.00125 -0.011221875 0.000234230083838
16 1 -0.034846875 -0.00125 -0.010040625 4.23834659909e-07
17 1 -0.034846875 -0.00125 -0.008859375 0.00136338991558
18 1 -0.034846875 -0.00125 -0.007678125 4.0970843376e-10
19 1 -0.034846875 -0.00125 -0.006496875 2.0184813259e-20
20 1 -0.034846875 -0.00125 -0.005315625 1.86164596227e-44
21 1 -0.034846875 -0.00125 -0.004134375 6.5256699717e-26
22 1 -0.034846875 -0.00125 -0.002953125 1.3981401489e-05
23 1 -0.034846875 -0.00125 -0.001771875 0.0134115864355
24 1 -0.034846875 -0.00125 -0.000590625 0.0133296733362
25 1 -0.034846875 -0.00125 0.000590625 0.00464624020015
26 1 -0.034846875 -0.00125 0.001771875 0.00675954682877
27 1 -0.034846875 -0.00125 0.002953125 6.41539273515e-07
28 1 -0.034846875 -0.00125 0.004134375 1.63106180201e-35
29 1 -0.034846875 -0.00125 0.005315625 2.32877158624e-63
30 1 -0.034846875 -0.00125 0.006496875 1.37862130815e-51
31 1 -0.034846875 -0.00125 0.007678125 1.96714486938e-17
32 1 -0.034846875 -0.00125 0.008859375 0.000270060189276
33 1 -0.034846875 -0.00125 0.010040625 6.20274924284e-11
34 1 -0.034846875 -0.00125 0.011221875 1.39743354759e-07
35 1 -0.033665625 -0.00125 -0.013584375 3.03234260503e-10
36 1 -0.033665625 -0.00125 -0.012403125 0.0139009970313
37 1 -0.033665625 -0.00125 -0.011221875 0.000752325635391
38 1 -0.033665625 -0.00125 -0.010040625 1.02747847518e-05
39 1 -0.033665625 -0.00125 -0.008859375 0.000127333778286
40 1 -0.033665625 -0.00125 -0.007678125 1.54699648364e-08
41 1 -0.033665625 -0.00125 -0.006496875 2.41786762326e-19
42 1 -0.033665625 -0.00125 -0.005315625 2.73949203955e-39
43 1 -0.033665625 -0.00125 -0.004134375 9.75846746157e-11
44 1 -0.033665625 -0.00125 -0.002953125 5.77541725723e-06
45 1 -0.033665625 -0.00125 -0.001771875 0.00312942942445
46 1 -0.033665625 -0.00125 -0.000590625 0.0078409929286
47 1 -0.033665625 -0.00125 0.000590625 0.00124949140634
48 1 -0.033665625 -0.00125 0.001771875 0.00342524690445
49 1 -0.033665625 -0.00125 0.002953125 7.28389655556e-06
50 1 -0.033665625 -0.00125 0.004134375 3.23053580372e-33
51 1 -0.033665625 -0.00125 0.005315625 1.07179863757e-39
52 1 -0.033665625 -0.00125 0.006496875 3.56682983512e-30
53 1 -0.033665625 -0.00125 0.007678125 2.52979109851e-11
54 1 -0.033665625 -0.00125 0.008859375 6.33384414354e-06
55 1 -0.033665625 -0.00125 0.010040625 3.88579109646e-09
56 1 -0.033665625 -0.00125 0.011221875 1.62331462179e-07
57 1 -0.033665625 -0.00125 0.012403125 0.000784178847178
58 1 -0.033665625 -0.00125 0.013584375 9.3563533969e-11
59 1 -0.032484375 -0.00125 -0.018309375 8.86379029824e-07
60 1 -0.032484375 -0.00125 -0.017128125 4.92394794545e-06
61 1 -0.032484375 -0.00125 -0.015946875 5.42641506765e-05
62 1 -0.032484375 -0.00125 -0.014765625 6.23945047573e-08
63 1 -0.032484375 -0.00125 -0.013584375 2.01316202312e-11
64 1 -0.032484375 -0.00125 -0.012403125 0.000233916639946
65 1 -0.032484375 -0.00125 -0.011221875 9.27299459414e-05
66 1 -0.032484375 -0.00125 -0.010040625 5.72609808191e-07
67 1 -0.032484375 -0.00125 -0.008859375 7.93310338063e-06
68 1 -0.032484375 -0.00125 -0.007678125 4.07413038178e-08
69 1 -0.032484375 -0.00125 -0.006496875 2.5217872381e-19
70 1 -0.032484375 -0.00125 -0.005315625 5.22465761019e-28
71 1 -0.032484375 -0.00125 -0.004134375 1.0815835643e-13
72 1 -0.032484375 -0.00125 -0.002953125 1.50449785371e-07
73 1 -0.032484375 -0.00125 -0.001771875 4.35888245881e-05
74 1 -0.032484375 -0.00125 -0.000590625 0.00020574907393
75 1 -0.032484375 -0.00125 0.000590625 0.000305819233771
76 1 -0.032484375 -0.00125 0.001771875 0.00226788576054
77 1 -0.032484375 -0.00125 0.002953125 1.17201675153e-06
78 1 -0.032484375 -0.00125 0.004134375 8.24287328483e-20
79 1 -0.032484375 -0.00125 0.005315625 7.37037990642e-32
80 1 -0.032484375 -0.00125 0.006496875 6.32813168205e-39
81 1 -0.032484375 -0.00125 0.007678125 3.36427655164e-17
82 1 -0.032484375 -0.00125 0.008859375 1.21823503555e-07
83 1 -0.032484375 -0.00125 0.010040625 2.91910536663e-08
84 1 -0.032484375 -0.00125 0.011221875 1.3644272259e-05
85 1 -0.032484375 -0.00125 0.012403125 4.31849978845e-07
86 1 -0.032484375 -0.00125 0.013584375 7.30182186194e-25
87 1 -0.032484375 -0.00125 0.014765625 5.59381598409e-10
88 1 -0.032484375 -0.00125 0.015946875 2.65016259163e-06
89 1 -0.032484375 -0.00125 0.017128125 1.52148902723e-05
90 1 -0.032484375 -0.00125 0.018309375 3.88141731576e-07
91 1 -0.031303125 -0.00125 -0.019490625 5.09800497266e-09
92 1 -0.031303125 -0.00125 -0.018309375 6.11580804113e-07
93 1 -0.031303125 -0.00125 -0.017128125 2.13292744276e-05
94 1 -0.031303125 -0.00125 -0.015946875 4.72561759917e-06
95 1 -0.031303125 -0.00125 -0.014765625 5.90338751348e-06
96 1 -0.031303125 -0.00125 -0.013584375 1.1341400395e-07
97 1 -0.031303125 -0.00125 -0.012403125 3.99449425483e-06
98 1 -0.031303125 -0.00125 -0.011221875 5.9633684897e-06
99 1 -0.031303125 -0.00125 -0.010040625 1.12791814217e-06
100 1 -0.031303125 -0.00125 -0.008859375 2.07242393128e-09
101 1 -0.031303125 -0.00125 -0.007678125 2.86887100438e-11
102 1 -0.031303125 -0.00125 -0.006496875 1.06751727258e-13
103 1 -0.031303125 -0.00125 -0.005315625 2.95335785886e-15
104 1 -0.031303125 -0.00125 -0.004134375 5.21087362442e-16
105 1 -0.031303125 -0.00125 -0.002953125 1.50727430948e-10
106 1 -0.031303125 -0.00125 -0.001771875 1.13741306658e-06
107 1 -0.031303125 -0.00125 -0.000590625 0.000170759658727
108 1 -0.031303125 -0.00125 0.000590625 0.000392463744172
109 1 -0.031303125 -0.00125 0.001771875 2.0647959559e-05
110 1 -0.031303125 -0.00125 0.002953125 5.18729214983e-07
111 1 -0.031303125 -0.00125 0.004134375 2.02584488676e-09
112 1 -0.031303125 -0.00125 0.005315625 5.05234304377e-16
113 1 -0.031303125 -0.00125 0.006496875 2.7295740334e-29
114 1 -0.031303125 -0.00125 0.007678125 4.81788233869e-15
115 1 -0.031303125 -0.00125 0.008859375 1.60189916208e-11
116 1 -0.031303125 -0.00125 0.010040625 2.57399599054e-11
117 1 -0.031303125 -0.00125 0.011221875 2.30333268925e-09
118 1 -0.031303125 -0.00125 0.012403125 1.31154272046e-07
119 1 -0.031303125 -0.00125 0.013584375 7.37227886365e-14
120 1 -0.031303125 -0.00125 0.014765625 3.65944924918e-10
121 1 -0.031303125 -0.00125 0.015946875 3.04492357783e-06
122 1 -0.031303125 -0.00125 0.017128125 1.78045336904e-07
123 1 -0.031303125 -0.00125 0.018309375 1.96063979478e-08
124 1 -0.031303125 -0.00125 0.019490625 8.69503316231e-14
125 1 -0.030121875 -0.00125 -0.020671875 1.83830132057e-17
126 1 -0.030121875 -0.00125 -0.019490625 3.89481569873e-09
127 1 -0.030121875 -0.00125 -0.018309375 1.10379905701e-06
128 1 -0.030121875 -0.00125 -0.017128125 9.3009217265e-05
129 1 -0.030121875 -0.00125 -0.015946875 3.16296192248e-06
130 1 -0.030121875 -0.00125 -0.014765625 6.84265066401e-07
131 1 -0.030121875 -0.00125 -0.013584375 8.58319735326e-09
132 1 -0.030121875 -0.00125 -0.012403125 3.83979103616e-08
133 1 -0.030121875 -0.00125 -0.011221875 1.0781962104e-10
134 1 -0.030121875 -0.00125 -0.010040625 1.67144456396e-14
135 1 -0.030121875 -0.00125 -0.008859375 1.17188562447e-22
136 1 -0.030121875 -0.00125 -0.007678125 1.68182050205e-19
137 1 -0.030121875 -0.00125 -0.006496875 1.15948973272e-19
138 1 -0.030121875 -0.00125 -0.005315625 9.78565954168e-13
139 1 -0.030121875 -0.00125 -0.004134375 8.06406293938e-23
140 1 -0.030121875 -0.00125 -0.002953125 1.4333895303e-11
141 1 -0.030121875 -0.00125 -0.001771875 1.34665401596e-08
142 1 -0.030121875 -0.00125 -0.000590625 3.56492270552e-07
143 1 -0.030121875 -0.00125 0.000590625 2.81422222157e-07
144 1 -0.030121875 -0.00125 0.001771875 2.40868782287e-07
145 1 -0.030121875 -0.00125 0.002953125 2.08360035782e-08
146 1 -0.030121875 -0.00125 0.004134375 1.29446410292e-09
147 1 -0.030121875 -0.00125 0.005315625 6.18794530508e-13
148 1 -0.030121875 -0.00125 0.006496875 5.5354787084e-25
149 1 -0.030121875 -0.00125 0.007678125 6.95277337689e-19
150 1 -0.030121875 -0.00125 0.008859375 1.25978458288e-16
151 1 -0.030121875 -0.00125 0.010040625 1.282545848e-13
152 1 -0.030121875 -0.00125 0.011221875 1.38564961898e-14
153 1 -0.030121875 -0.00125 0.012403125 4.41664802626e-09
154 1 -0.030121875 -0.00125 0.013584375 6.59261880206e-09
155 1 -0.030121875 -0.00125 0.014765625 4.25553964792e-10
156 1 -0.030121875 -0.00125 0.015946875 6.25637006316e-07
157 1 -0.030121875 -0.00125 0.017128125 4.52599180084e-07
158 1 -0.030121875 -0.00125 0.018309375 3.72963719843e-08
159 1 -0.030121875 -0.00125 0.019490625 3.00106018602e-13
160 1 -0.030121875 -0.00125 0.020671875 1.68289126644e-20
161 1 -0.028940625 -0.00125 -0.021853125 2.39310153098e-05
162 1 -0.028940625 -0.00125 -0.020671875 2.58283139418e-07
163 1 -0.028940625 -0.00125 -0.019490625 5.01871687187e-06
164 1 -0.028940625 -0.00125 -0.018309375 1.26019163877e-05
165 1 -0.028940625 -0.00125 -0.017128125 5.30860786643e-05
166 1 -0.028940625 -0.00125 -0.015946875 2.88982818858e-05
167 1 -0.028940625 -0.00125 -0.014765625 2.70109503894e-06
168 1 -0.028940625 -0.00125 -0.013584375 3.21428010044e-10
169 1 -0.028940625 -0.00125 -0.012403125 7.94842962775e-14
170 1 -0.028940625 -0.00125 -0.011221875 1.67942464132e-15
171 1 -0.028940625 -0.00125 -0.010040625 3.0749673175e-18
172 1 -0.028940625 -0.00125 -0.008859375 1.69016251661e-20
173 1 -0.028940625 -0.00125 -0.007678125 1.64294396771e-18
174 1 -0.028940625 -0.00125 -0.006496875 7.56866121586e-13
175 1 -0.028940625 -0.00125 -0.005315625 4.32922347948e-13
176 1 -0.028940625 -0.00125 -0.004134375 1.35112383666e-10
177 1 -0.028940625 -0.00125 -0.002953125 9.50809996383e-10
178 1 -0.028940625 -0.00125 -0.001771875 2.38664585139e-08
179 1 -0.028940625 -0.00125 -0.000590625 1.05181794482e-05
180 1 -0.028940625 -0.00125 0.000590625 4.66626547466e-08
181 1 -0.028940625 -0.00125 0.001771875 6.66577549767e-10
182 1 -0.028940625 -0.00125 0.002953125 4.56742497272e-09
183 1 -0.028940625 -0.00125 0.004134375 5.11022355415e-09
184 1 -0.028940625 -0.00125 0.005315625 1.84348742262e-12
185 1 -0.028940625 -0.00125 0.006496875 1.2668082585e-12
186 1 -0.028940625 -0.00125 0.007678125 2.13173126443e-18
187 1 -0.028940625 -0.00125 0.008859375 2.68002327632e-21
188 1 -0.028940625 -0.00125 0.010040625 1.14817651696e-18
189 1 -0.028940625 -0.00125 0.011221875 7.33999665124e-14
190 1 -0.028940625 -0.00125 0.012403125 1.12184590658e-12
191 1 -0.028940625 -0.00125 0.013584375 9.0279625422e-12
192 1 -0.028940625 -0.00125 0.014765625 5.63251822356e-09
193 1 -0.028940625 -0.00125 0.015946875 9.28845107778e-06
194 1 -0.028940625 -0.00125 0.017128125 1.94604875644e-06
195 1 -0.028940625 -0.00125 0.018309375 5.76391334403e-07
196 1 -0.028940625 -0.00125 0.019490625 1.24084070345e-13
197 1 -0.028940625 -0.00125 0.020671875 1.2066459015e-16
198 1 -0.028940625 -0.00125 0.021853125 3.67245005989e-12
199 1 -0.027759375 -0.00125 -0.024215625 2.41099169706e-12
200 1 -0.027759375 -0.00125 -0.023034375 7.89493663384e-09
201 1 -0.027759375 -0.00125 -0.021853125 0.000118671108593
202 1 -0.027759375 -0.00125 -0.020671875 5.53150752252e-07
203 1 -0.027759375 -0.00125 -0.019490625 8.37227475596e-06
204 1 -0.027759375 -0.00125 -0.018309375 0.000261403158689
205 1 -0.027759375 -0.00125 -0.017128125 0.000516145783009
206 1 -0.027759375 -0.00125 -0.015946875 7.50096167572e-06
207 1 -0.027759375 -0.00125 -0.014765625 1.48285226103e-09
208 1 -0.027759375 -0.00125 -0.013584375 1.12906883346e-11
209 1 -0.027759375 -0.00125 -0.012403125 1.42449748615e-11
210 1 -0.027759375 -0.00125 -0.011221875 5.89272216743e-18
211 1 -0.027759375 -0.00125 -0.010040625 5.25204551734e-18
212 1 -0.027759375 -0.00125 -0.008859375 1.71672365401e-19
213 1 -0.027759375 -0.00125 -0.007678125 1.76903901873e-13
214 1 -0.027759375 -0.00125 -0.006496875 8.30790507204e-09
215 1 -0.027759375 -0.00125 -0.005315625 8.37807326482e-07
216 1 -0.027759375 -0.00125 -0.004134375 3.4161325139e-05
217 1 -0.027759375 -0.00125 -0.002953125 4.4281355299e-05
218 1 -0.027759375 -0.00125 -0.001771875 1.55954346089e-05
219 1 -0.027759375 -0.00125 -0.000590625 0.00165769846795
220 1 -0.027759375 -0.00125 0.000590625 7.61132141344e-05
221 1 -0.027759375 -0.00125 0.001771875 4.12901252517e-05
222 1 -0.027759375 -0.00125 0.002953125 6.8062181652e-06
223 1 -0.027759375 -0.00125 0.004134375 6.03064993665e-07
224 1 -0.027759375 -0.00125 0.005315625 1.92458438319e-10
225 1 -0.027759375 -0.00125 0.006496875 4.4337172984e-14
226 1 -0.027759375 -0.00125 0.007678125 5.00405081777e-18
227 1 -0.027759375 -0.00125 0.008859375 1.48247600052e-12
228 1 -0.027759375 -0.00125 0.010040625 2.54097367034e-13
229 1 -0.027759375 -0.00125 0.011221875 2.86118109096e-13
230 1 -0.027759375 -0.00125 0.012403125 6.57806058539e-10
231 1 -0.027759375 -0.00125 0.013584375 1.55608180408e-07
232 1 -0.027759375 -0.00125 0.014765625 8.81167981674e-06
233 1 -0.027759375 -0.00125 0.015946875 0.000100953644638
234 1 -0.027759375 -0.00125 0.017128125 8.09024491253e-05
235 1 -0.027759375 -0.00125 0.018309375 2.22130785269e-05
236 1 -0.027759375 -0.00125 0.019490625 3.5136161478e-09
237 1 -0.027759375 -0.00125 0.020671875 3.80108880747e-15
238 1 -0.027759375 -0.00125 0.021853125 1.28954822238e-12
239 1 -0.027759375 -0.00125 0.023034375 3.38905337164e-20
240 1 -0.027759375 -0.00125 0.024215625 3.62607867341e-46
241 1 -0.026578125 -0.00125 -0.026578125 6.15584951553e-19
242 1 -0.026578125 -0.00125 -0.025396875 1.3868936595e-17
243 1 -0.026578125 -0.00125 -0.024215625 4.94017378669e-17
244 1 -0.026578125 -0.00125 -0.023034375 1.38386993579e-12
245 1 -0.026578125 -0.00125 -0.021853125 6.64755228721e-10
246 1 -0.026578125 -0.00125 -0.020671875 2.33889429903e-06
247 1 -0.026578125 -0.00125 -0.019490625 0.000664935976395
248 1 -0.026578125 -0.00125 -0.018309375 0.00111836970401
249 1 -0.026578125 -0.00125 -0.017128125 0.00119128562137
250 1 -0.026578125 -0.00125 -0.015946875 1.86266027119e-05
251 1 -0.026578125 -0.00125 -0.014765625 1.93612819775e-11
252 1 -0.026578125 -0.00125 -0.013584375 7.00582730962e-12
253 1 -0.026578125 -0.00125 -0.012403125 1.47894362253e-16
254 1 -0.026578125 -0.00125 -0.011221875 2.66568244331e-14
255 1 -0.026578125 -0.00125 -0.010040625 1.21177252508e-17
256 1 -0.026578125 -0.00125 -0.008859375 4.81571993264e-12
257 1 -0.026578125 -0.00125 -0.007678125 6.64669456306e-08
258 1 -0.026578125 -0.00125 -0.006496875 4.7142434097e-05
259 1 -0.026578125 -0.00125 -0.005315625 0.00522134770331
260 1 -0.026578125 -0.00125 -0.004134375 0.00955432411103
261 1 -0.026578125 -0.00125 -0.002953125 0.00779364255561
262 1 -0.026578125 -0.00125 -0.001771875 0.00609102797291
263 1 -0.026578125 -0.00125 -0.000590625 0.00629425438521
264 1 -0.026578125 -0.00125 0.000590625 0.00538747858273
265 1 -0.026578125 -0.00125 0.001771875 0.00529376340231
266 1 -0.026578125 -0.00125 0.002953125 0.00753719044682
267 1 -0.026578125 -0.00125 0.004134375 0.000711538293748
268 1 -0.026578125 -0.00125 0.005315625 3.77036013239e-05
269 1 -0.026578125 -0.00125 0.006496875 1.12159700907e-14
270 1 -0.026578125 -0.00125 0.007678125 6.7897457809e-13
271 1 -0.026578125 -0.00125 0.008859375 2.71562078182e-12
272 1 -0.026578125 -0.00125 0.010040625 3.636033819e-11
273 1 -0.026578125 -0.00125 0.011221875 1.4964226583e-09
274 1 -0.026578125 -0.00125 0.012403125 1.87357903495e-08
275 1 -0.026578125 -0.00125 0.013584375 1.82521097291e-05
276 1 -0.026578125 -0.00125 0.014765625 0.000129115447677
277 1 -0.026578125 -0.00125 0.015946875 0.00139171849562
278 1 -0.026578125 -0.00125 0.017128125 0.00285875531705
279 1 -0.026578125 -0.00125 0.018309375 0.00122620030678
280 1 -0.026578125 -0.00125 0.019490625 1.60573388561e-07
281 1 -0.026578125 -0.00125 0.020671875 7.02606249416e-11
282 1 -0.026578125 -0.00125 0.021853125 1.26462454628e-16
283 1 -0.026578125 -0.00125 0.023034375 1.69667798917e-36
284 1 -0.026578125 -0.00125 0.024215625 1.14318588955e-28
285 1 -0.026578125 -0.00125 0.025396875 4.54919753532e-20
286 1 -0.026578125 -0.00125 0.026578125 7.07845907043e-20
287 1 -0.025396875 -0.00125 -0.026578125 1.86767601677e-31
288 1 -0.025396875 -0.00125 -0.025396875 2.738940931e-16
289 1 -0.025396875 -0.00125 -0.024215625 4.77297892446e-13
290 1 -0.025396875 -0.00125 -0.023034375 4.05067173819e-11
291 1 -0.025396875 -0.00125 -0.021853125 3.5130959748e-06
292 1 -0.025396875 -0.00125 -0.020671875 0.00021920095469
293 1 -0.025396875 -0.00125 -0.019490625 0.00161133821587
294 1 -0.025396875 -0.00125 -0.018309375 0.0153030204822
295 1 -0.025396875 -0.00125 -0.017128125 0.00310941138755
296 1 -0.025396875 -0.00125 -0.015946875 0.000344388945998
297 1 -0.025396875 -0.00125 -0.014765625 1.37245175218e-05
298 1 -0.025396875 -0.00125 -0.013584375 4.49518646283e-08
299 1 -0.025396875 -0.00125 -0.012403125 9.16504437505e-12
300 1 -0.025396875 -0.00125 -0.011221875 3.48741424389e-09
301 1 -0.025396875 -0.00125 -0.010040625 2.64235989932e-07
302 1 -0.025396875 -0.00125 -0.008859375 2.36518024215e-06
303 1 -0.025396875 -0.00125 -0.007678125 1.72085998376e-06
304 1 -0.025396875 -0.00125 -0.006496875 0.00473776689534
305 1 -0.025396875 -0.00125 -0.005315625 0.0138049476173
306 1 -0.025396875 -0.00125 -0.004134375 0.0189817048405
307 1 -0.025396875 -0.00125 -0.002953125 0.00754628985699
308 1 -0.025396875 -0.00125 -0.001771875 0.00463411671255
309 1 -0.025396875 -0.00125 -0.000590625 0.00387908166591
310 1 -0.025396875 -0.00125 0.000590625 0.0114643327144
311 1 -0.025396875 -0.00125 0.001771875 0.0158474293164
312 1 -0.025396875 -0.00125 0.002953125 0.00996271836853
313 1 -0.025396875 -0.00125 0.004134375 0.00659464176484
314 1 -0.025396875 -0.00125 0.005315625 0.00569846321626
315 1 -0.025396875 -0.00125 0.006496875 7.13629214844e-05
316 1 -0.025396875 -0.00125 0.007678125 6.96286865661e-07
317 1 -0.025396875 -0.00125 0.008859375 1.2947846982e-07
318 1 -0.025396875 -0.00125 0.010040625 5.093996982e-12
319 1 -0.025396875 -0.00125 0.011221875 4.54951886057e-13
320 1 -0.025396875 -0.00125 0.012403125 2.07386195582e-10
321 1 -0.025396875 -0.00125 0.013584375 2.58854142838e-06
322 1 -0.025396875 -0.00125 0.014765625 0.000201642758762
323 1 -0.025396875 -0.00125 0.015946875 0.00573267529742
324 1 -0.025396875 -0.00125 0.017128125 0.00534702796681
325 1 -0.025396875 -0.00125 0.018309375 0.00170310492765
326 1 -0.025396875 -0.00125 0.019490625 1.92153371948e-05
327 1 -0.025396875 -0.00125 0.020671875 6.7949577517e-08
328 1 -0.025396875 -0.00125 0.021853125 1.37402132866e-11
329 1 -0.025396875 -0.00125 0.023034375 1.28789102939e-15
330 1 -0.025396875 -0.00125 0.024215625 1.06876999038e-17
331 1 -0.025396875 -0.00125 0.025396875 4.51671099987e-13
332 1 -0.025396875 -0.00125 0.026578125 1.3099071717e-48
333 1 -0.024215625 -0.00125 -0.027759375 4.05922713654e-15
334 1 -0.024215625 -0.00125 -0.026578125 6.58916068274e-13
335 1 -0.024215625 -0.00125 -0.025396875 3.06337778451e-10
336 1 -0.024215625 -0.00125 -0.024215625 1.54478051937e-06
337 1 -0.024215625 -0.00125 -0.023034375 5.77818124781e-05
338 1 -0.024215625 -0.00125 -0.021853125 0.000407186161459
339 1 -0.024215625 -0.00125 -0.020671875 0.000911689941307
340 1 -0.024215625 -0.00125 -0.019490625 0.00366597335388
341 1 -0.024215625 -0.00125 -0.018309375 0.00174751753644
342 1 -0.024215625 -0.00125 -0.017128125 0.00242394103536
343 1 -0.024215625 -0.00125 -0.015946875 0.00292134937817
344 1 -0.024215625 -0.00125 -0.014765625 0.000523279572837
345 1 -0.024215625 -0.00125 -0.013584375 1.65336360596e-05
346 1 -0.024215625 -0.00125 -0.012403125 1.1188661576e-07
347 1 -0.024215625 -0.00125 -0.011221875 6.27223761325e-07
348 1 -0.024215625 -0.00125 -0.010040625 1.78734831332e-05
349 1 -0.024215625 -0.00125 -0.008859375 0.000173621482319
350 1 -0.024215625 -0.00125 -0.007678125 1.39878377435e-05
351 1 -0.024215625 -0.00125 -0.006496875 0.00101646307997
352 1 -0.024215625 -0.00125 -0.005315625 0.0125113278696
353 1 -0.024215625 -0.00125 -0.004134375 0.00478204911005
354 1 -0.024215625 -0.00125 -0.002953125 0.00275989075799
355 1 -0.024215625 -0.00125 -0.001771875 0.00407811570267
356 1 -0.024215625 -0.00125 -0.000590625 0.00516940961416
357 1 -0.024215625 -0.00125 0.000590625 0.0143625830656
358 1 -0.024215625 -0.00125 0.001771875 0.0152030848488
359 1 -0.024215625 -0.00125 0.002953125 0.0021172991595
360 1 -0.024215625 -0.00125 0.004134375 0.00141372158278
361 1 -0.024215625 -0.00125 0.005315625 0.000440993624145
362 1 -0.024215625 -0.00125 0.006496875 3.06965148154e-05
363 1 -0.024215625 -0.00125 0.007678125 1.95490812322e-06
364 1 -0.024215625 -0.00125 0.008859375 8.04662855784e-07
365 1 -0.024215625 -0.00125 0.010040625 4.18638328068e-07
366 1 -0.024215625 -0.00125 0.011221875 1.83654283729e-09
367 1 -0.024215625 -0.00125 0.012403125 4.41179794457e-07
368 1 -0.024215625 -0.00125 0.013584375 2.98049625645e-05
369 1 -0.024215625 -0.00125 0.014765625 0.00164902068548
370 1 -0.024215625 -0.00125 0.015946875 0.0077713941102
371 1 -0.024215625 -0.00125 0.017128125 0.0107316005304
372 1 -0.024215625 -0.00125 0.018309375 0.00463568196303
373 1 -0.024215625 -0.00125 0.019490625 0.000264990062194
374 1 -0.024215625 -0.00125 0.020671875 5.06033747551e-06
375 1 -0.024215625 -0.00125 0.021853125 4.14893782209e-07
376 1 -0.024215625 -0.00125 0.023034375 1.2701964779e-11
377 1 -0.024215625 -0.00125 0.024215625 1.47527474908e-16
378 1 -0.024215625 -0.00125 0.025396875 3.26060308492e-17
379 1 -0.024215625 -0.00125 0.026578125 6.17120595745e-23
380 1 -0.024215625 -0.00125 0.027759375 4.83569363533e-26
381 1 -0.023034375 -0.00125 -0.027759375 9.79052221396e-17
382 1 -0.023034375 -0.00125 -0.026578125 1.03909947481e-09
383 1 -0.023034375 -0.00125 -0.025396875 4.72962103387e-07
384 1 -0.023034375 -0.00125 -0.024215625 3.59785637016e-06
385 1 -0.023034375 -0.00125 -0.023034375 0.000749165697831
386 1 -0.023034375 -0.00125 -0.021853125 0.00045959334039
387 1 -0.023034375 -0.00125 -0.020671875 0.00531285173006
388 1 -0.023034375 -0.00125 -0.019490625 0.00716790848794
389 1 -0.023034375 -0.00125 -0.018309375 0.0148666862714
390 1 -0.023034375 -0.00125 -0.017128125 0.0134001533787
391 1 -0.023034375 -0.00125 -0.015946875 0.0086952870302
392 1 -0.023034375 -0.00125 -0.014765625 0.000708242487518
393 1 -0.023034375 -0.00125 -0.013584375 3.16228930876e-05
394 1 -0.023034375 -0.00125 -0.012403125 5.80429957716e-07
395 1 -0.023034375 -0.00125 -0.011221875 2.21198810059e-06
396 1 -0.023034375 -0.00125 -0.010040625 0.000232351265705
397 1 -0.023034375 -0.00125 -0.008859375 3.95892881613e-05
398 1 -0.023034375 -0.00125 -0.007678125 0.000186314393886
399 1 -0.023034375 -0.00125 -0.006496875 0.00104600255258
400 1 -0.023034375 -0.00125 -0.005315625 0.00516646753749
401 1 -0.023034375 -0.00125 -0.004134375 0.00555723535149
402 1 -0.023034375 -0.00125 -0.002953125 0.0049654089121
403 1 -0.023034375 -0.00125 -0.001771875 0.0135051271967
404 1 -0.023034375 -0.00125 -0.000590625 0.0148243343228
405 1 -0.023034375 -0.00125 0.000590625 0.0119849269859
406 1 -0.023034375 -0.00125 0.001771875 0.00335775992598
407 1 -0.023034375 -0.00125 0.002953125 0.00495190031153
408 1 -0.023034375 -0.00125 0.004134375 0.00146623260129
409 1 -0.023034375 -0.00125 0.005315625 0.000232272606834
410 1 -0.023034375 -0.00125 0.006496875 0.0002125141428
411 1 -0.023034375 -0.00125 0.007678125 9.3695535822e-06
412 1 -0.023034375 -0.00125 0.008859375 9.03281584134e-06
413 1 -0.023034375 -0.00125 0.010040625 1.72154951025e-06
414 1 -0.023034375 -0.00125 0.011221875 1.4244364796e-07
415 1 -0.023034375 -0.00125 0.012403125 1.142709604e-06
416 1 -0.023034375 -0.00125 0.013584375 0.000113680740899
417 1 -0.023034375 -0.00125 0.014765625 0.00419546998224
418 1 -0.023034375 -0.00125 0.015946875 0.012802824231
419 1 -0.023034375 -0.00125 0.017128125 0.00903259984879
420 1 -0.023034375 -0.00125 0.018309375 0.0103963010611
421 1 -0.023034375 -0.00125 0.019490625 0.00363486755018
422 1 -0.023034375 -0.00125 0.020671875 0.00113740279139
423 1 -0.023034375 -0.00125 0.021853125 0.000116823180379
424 1 -0.023034375 -0.00125 0.023034375 1.25090365333e-06
425 1 -0.023034375 -0.00125 0.024215625 1.16946678545e-09
426 1 -0.023034375 -0.00125 0.025396875 1.61213736147e-09
427 1 -0.023034375 -0.00125 0.026578125 7.01470695401e-16
428 1 -0.023034375 -0.00125 0.027759375 1.68726741411e-13
429 1 -0.021853125 -0.00125 -0.028940625 7.62284922849e-09
430 1 -0.021853125 -0.00125 -0.027759375 5.78968589094e-09
431 1 -0.021853125 -0.00125 -0.026578125 7.40168320888e-10
432 1 -0.021853125 -0.00125 -0.025396875 7.72912655488e-06
433 1 -0.021853125 -0.00125 -0.024215625 0.000122388427997
434 1 -0.021853125 -0.00125 -0.023034375 0.000415337067806
435 1 -0.021853125 -0.00125 -0.021853125 0.00413175199626
436 1 -0.021853125 -0.00125 -0.020671875 0.0104261709055
437 1 -0.021853125 -0.00125 -0.019490625 0.018764800154
438 1 -0.021853125 -0.00125 -0.018309375 0.0196888463275
439 1 -0.021853125 -0.00125 -0.017128125 0.0251811597818
440 1 -0.021853125 -0.00125 -0.015946875 0.0149270987967
441 1 -0.021853125 -0.00125 -0.014765625 0.0050360602562
442 1 -0.021853125 -0.00125 -0.013584375 0.000540443525932
443 1 -0.021853125 -0.00125 -0.012403125 3.87562052893e-05
444 1 -0.021853125 -0.00125 -0.011221875 7.34560747586e-05
445 1 -0.021853125 -0.00125 -0.010040625 0.000449414356405
446 1 -0.021853125 -0.00125 -0.008859375 0.000211849903389
447 1 -0.021853125 -0.00125 -0.007678125 0.0015953965887
448 1 -0.021853125 -0.00125 -0.006496875 0.00125886102176
449 1 -0.021853125 -0.00125 -0.005315625 0.00292308655671
450 1 -0.021853125 -0.00125 -0.004134375 0.00717238291632
451 1 -0.021853125 -0.00125 -0.002953125 0.00562817131162
452 1 -0.021853125 -0.00125 -0.001771875 0.00566390553925
453 1 -0.021853125 -0.00125 -0.000590625 0.0153180945204
454 1 -0.021853125 -0.00125 0.000590625 0.0063401163165
455 1 -0.021853125 -0.00125 0.001771875 0.0021298316174
456 1 -0.021853125 -0.00125 0.002953125 0.0082005764197
457 1 -0.021853125 -0.00125 0.004134375 0.012426243066
458 1 -0.021853125 -0.00125 0.005315625 0.00389110704993
459 1 -0.021853125 -0.00125 0.006496875 0.000488448703675
460 1 -0.021853125 -0.00125 0.007678125 0.000157561088722
461 1 -0.021853125 -0.00125 0.008859375 0.00029083154946
462 1 -0.021853125 -0.00125 0.010040625 2.74030859446e-05
463 1 -0.021853125 -0.00125 0.011221875 4.27225839793e-05
464 1 -0.021853125 -0.00125 0.012403125 0.000102244055955
465 1 -0.021853125 -0.00125 0.013584375 0.000238312532145
466 1 -0.021853125 -0.00125 0.014765625 0.0047500540363
467 1 -0.021853125 -0.00125 0.015946875 0.0296044219914
468 1 -0.021853125 -0.00125 0.017128125 0.0321590542954
469 1 -0.021853125 -0.00125 0.018309375 0.0201202439264
470 1 -0.021853125 -0.00125 0.019490625 0.0115363403202
471 1 -0.021853125 -0.00125 0.020671875 0.00301425434286
472 1 -0.021853125 -0.00125 0.021853125 0.00116412859863
473 1 -0.021853125 -0.00125 0.023034375 4.40915537182e-05
474 1 -0.021853125 -0.00125 0.024215625 9.00211487298e-07
475 1 -0.021853125 -0.00125 0.025396875 7.03307067602e-08
476 1 -0.021853125 -0.00125 0.026578125 2.57836724131e-11
477 1 -0.021853125 -0.00125 0.027759375 3.14468233738e-10
478 1 -0.021853125 -0.00125 0.028940625 8.77253322203e-12
479 1 -0.020671875 -0.00125 -0.030121875 5.90549611153e-10
480 1 -0.020671875 -0.00125 -0.028940625 1.16832477379e-09
481 1 -0.020671875 -0.00125 -0.027759375 1.80481400784e-09
482 1 -0.020671875 -0.00125 -0.026578125 1.65957851406e-08
483 1 -0.020671875 -0.00125 -0.025396875 1.39328597889e-06
484 1 -0.020671875 -0.00125 -0.024215625 1.92842781326e-05
485 1 -0.020671875 -0.00125 -0.023034375 0.000403302208573
486 1 -0.020671875 -0.00125 -0.021853125 0.00483661241292
487 1 -0.020671875 -0.00125 -0.020671875 0.0102058933364
488 1 -0.020671875 -0.00125 -0.019490625 0.047265760509
489 1 -0.020671875 -0.00125 -0.018309375 0.0384322327409
490 1 -0.020671875 -0.00125 -0.017128125 0.0401535202095
491 1 -0.020671875 -0.00125 -0.015946875 0.0242263311779
492 1 -0.020671875 -0.00125 -0.014765625 0.00673201754432
493 1 -0.020671875 -0.00125 -0.013584375 0.000929438554915
494 1 -0.020671875 -0.00125 -0.012403125 0.000262286855076
495 1 -0.020671875 -0.00125 -0.011221875 0.000285312504686
496 1 -0.020671875 -0.00125 -0.010040625 0.00344071936693
497 1 -0.020671875 -0.00125 -0.008859375 0.000525926905556
498 1 -0.020671875 -0.00125 -0.007678125 0.00243386693576
499 1 -0.020671875 -0.00125 -0.006496875 0.00562009254728
500 1 -0.020671875 -0.00125 -0.005315625 0.0149792626129
501 1 -0.020671875 -0.00125 -0.004134375 0.0238378042995
502 1 -0.020671875 -0.00125 -0.002953125 0.0200140145753
503 1 -0.020671875 -0.00125 -0.001771875 0.0324709712818
504 1 -0.020671875 -0.00125 -0.000590625 0.0434012987874
505 1 -0.020671875 -0.00125 0.000590625 0.0240727923888
506 1 -0.020671875 -0.00125 0.001771875 0.0232866733819
507 1 -0.020671875 -0.00125 0.002953125 0.0141202488391
508 1 -0.020671875 -0.00125 0.004134375 0.0184443308747
509 1 -0.020671875 -0.00125 0.005315625 0.0065325683915
510 1 -0.020671875 -0.00125 0.006496875 0.00305422101221
511 1 -0.020671875 -0.00125 0.007678125 0.00127508439831
512 1 -0.020671875 -0.00125 0.008859375 0.00223586921088
513 1 -0.020671875 -0.00125 0.010040625 0.000124319885864