ITEM: TIMESTEP
0
ITEM: NUMBER OF ATOMS
3080
ITEM: BOX BOUNDS ss ss ss
-3.7007399999999996e-02 3.7007399999999996e-02
-2.0002499999999999e-03 2.5000000000000004e-07
-3.7007399999999996e-02 3.7007399999999996e-02
ITEM: ATOMS id type x y z c_1
0 1 -0.037209375 -0.00125 -0.000590625 0.22972790255
1 1 -0.036028125 -0.00125 -0.007678125 2.13168348623e-05
2 1 -0.036028125 -0.00125 -0.006496875 2.2665206561e-07
3 1 -0.036028125 -0.00125 -0.005315625 7.76829259146e-10
4 1 -0.036028125 -0.00125 -0.004134375 1.29154919019e-07
5 1 -0.036028125 -0.00125 -0.002953125 0.00386738124181
6 1 -0.036028125 -0.00125 -0.001771875 0.0336404671836
7 1 -0.036028125 -0.00125 -0.000590625 0.0928287190783
8 1 -0.036028125 -0.00125 0.000590625 0.213064607628
9 1 -0.036028125 -0.00125 0.001771875 0.352013636841
10 1 -0.036028125 -0.00125 0.002953125 0.0495163685044
11 1 -0.036028125 -0.00125 0.004134375 0.00173043670358
12 1 -0.036028125 -0.00125 0.005315625 5.78222192304e-05
13 1 -0.036028125 -0.00125 0.006496875 6.33263961188e-05
14 1 -0.036028125 -0.00125 0.007678125 0.00218696890447
15 1 -0.034846875 -0.00125 -0.011221875 0.00274575871702
16 1 -0.034846875 -0.00125 -0.010040625 0.00335210598963
17 1 -0.034846875 -0.00125 -0.008859375 0.0248842199546
18 1 -0.034846875 -0.00125 -0.007678125 1.55491142685e-05
19 1 -0.034846875 -0.00125 -0.006496875 5.2510175173e-08
20 1 -0.034846875 -0.00125 -0.005315625 3.00638666041e-08
21 1 -0.034846875 -0.00125 -0.004134375 1.02725947725e-05
22 1 -0.034846875 -0.00125 -0.002953125 0.00463080124776
23 1 -0.034846875 -0.00125 -0.001771875 0.0430140913701
24 1 -0.034846875 -0.00125 -0.000590625 0.178173326276
25 1 -0.034846875 -0.00125 0.000590625 0.31758217168
26 1 -0.034846875 -0.00125 0.001771875 0.317657112995
27 1 -0.034846875 -0.00125 0.002953125 0.132046177119
28 1 -0.034846875 -0.00125 0.004134375 0.00358340778869
29 1 -0.034846875 -0.00125 0.005315625 1.59415463655e-05
30 1 -0.034846875 -0.00125 0.006496875 4.16597529897e-06
31 1 -0.034846875 -0.00125 0.007678125 0.017193356835
32 1 -0.034846875 -0.00125 0.008859375 0.161950248994
33 1 -0.034846875 -0.00125 0.010040625 0.029150924862
34 1 -0.034846875 -0.00125 0.011221875 0.0175362115127
35 1 -0.033665625 -0.00125 -0.013584375 7.12464169789e-05
36 1 -0.033665625 -0.00125 -0.012403125 0.0353261954516
37 1 -0.033665625 -0.00125 -0.011221875 0.0113403505092
38 1 -0.033665625 -0.00125 -0.010040625 0.01344962956
39 1 -0.033665625 -0.00125 -0.008859375 0.0175620379346
40 1 -0.033665625 -0.00125 -0.007678125 0.000134736331313
41 1 -0.033665625 -0.00125 -0.006496875 3.51332334241e-05
42 1 -0.033665625 -0.00125 -0.005315625 1.94429176069e-05
43 1 -0.033665625 -0.00125 -0.004134375 0.00670911566699
44 1 -0.033665625 -0.00125 -0.002953125 0.0203575922619
45 1 -0.033665625 -0.00125 -0.001771875 0.09373921513
46 1 -0.033665625 -0.00125 -0.000590625 0.239664282446
47 1 -0.033665625 -0.00125 0.000590625 0.324193020092
48 1 -0.033665625 -0.00125 0.001771875 0.351248294524
49 1 -0.033665625 -0.00125 0.002953125 0.204508754141
50 1 -0.033665625 -0.00125 0.004134375 0.0181825294642
51 1 -0.033665625 -0.00125 0.005315625 0.0080794729493
52 1 -0.033665625 -0.00125 0.006496875 0.00148983812283
53 1 -0.033665625 -0.00125 0.007678125 0.0563575572939
54 1 -0.033665625 -0.00125 0.008859375 0.153544484197
55 1 -0.033665625 -0.00125 0.010040625 0.0581143050995
56 1 -0.033665625 -0.00125 0.011221875 0.0490308867558
57 1 -0.033665625 -0.00125 0.012403125 0.0962767386824
58 1 -0.033665625 -0.00125 0.013584375 0.00274530548282
59 1 -0.032484375 -0.00125 -0.018309375 0.000203647730793
60 1 -0.032484375 -0.00125 -0.017128125 0.00685298020263
61 1 -0.032484375 -0.00125 -0.015946875 0.00174341714396
62 1 -0.032484375 -0.00125 -0.014765625 0.000833972034047
63 1 -0.032484375 -0.00125 -0.013584375 0.000282603001694
64 1 -0.032484375 -0.00125 -0.012403125 0.0176047223046
65 1 -0.032484375 -0.00125 -0.011221875 0.032204739933
66 1 -0.032484375 -0.00125 -0.010040625 0.028956963829
67 1 -0.032484375 -0.00125 -0.008859375 0.0207259688735
68 1 -0.032484375 -0.00125 -0.007678125 0.00202298980789
69 1 -0.032484375 -0.00125 -0.006496875 0.000168796885375
70 1 -0.032484375 -0.00125 -0.005315625 0.00143268206168
71 1 -0.032484375 -0.00125 -0.004134375 0.0193288558213
72 1 -0.032484375 -0.00125 -0.002953125 0.0244280706478
73 1 -0.032484375 -0.00125 -0.001771875 0.135586210062
74 1 -0.032484375 -0.00125 -0.000590625 0.214833130032
75 1 -0.032484375 -0.00125 0.000590625 0.23533219143
76 1 -0.032484375 -0.00125 0.001771875 0.159196643663
77 1 -0.032484375 -0.00125 0.002953125 0.051829914696
78 1 -0.032484375 -0.00125 0.004134375 0.00386444810067
79 1 -0.032484375 -0.00125 0.005315625 0.00246732706907
80 1 -0.032484375 -0.00125 0.006496875 0.00161998034054
81 1 -0.032484375 -0.00125 0.007678125 0.0551840076158
82 1 -0.032484375 -0.00125 0.008859375 0.169693870094
83 1 -0.032484375 -0.00125 0.010040625 0.164032643881
84 1 -0.032484375 -0.00125 0.011221875 0.180483747596
85 1 -0.032484375 -0.00125 0.012403125 0.164566180026
86 1 -0.032484375 -0.00125 0.013584375 0.00431770215731
87 1 -0.032484375 -0.00125 0.014765625 0.0303035878382
88 1 -0.032484375 -0.00125 0.015946875 0.0274207289656
89 1 -0.032484375 -0.00125 0.017128125 0.0102112929283
90 1 -0.032484375 -0.00125 0.018309375 0.00221114802806
91 1 -0.031303125 -0.00125 -0.019490625 3.49038433543e-05
92 1 -0.031303125 -0.00125 -0.018309375 0.000617485918954
93 1 -0.031303125 -0.00125 -0.017128125 0.00593340560189
94 1 -0.031303125 -0.00125 -0.015946875 0.00419167689794
95 1 -0.031303125 -0.00125 -0.014765625 0.00438509887397
96 1 -0.031303125 -0.00125 -0.013584375 0.0028415502935
97 1 -0.031303125 -0.00125 -0.012403125 0.0282988934834
98 1 -0.031303125 -0.00125 -0.011221875 0.0286451554593
99 1 -0.031303125 -0.00125 -0.010040625 0.049740363513
100 1 -0.031303125 -0.00125 -0.008859375 0.0168393229677
101 1 -0.031303125 -0.00125 -0.007678125 0.00301498678799
102 1 -0.031303125 -0.00125 -0.006496875 0.00288308139172
103 1 -0.031303125 -0.00125 -0.005315625 0.011672475041
104 1 -0.031303125 -0.00125 -0.004134375 0.016585951349
105 1 -0.031303125 -0.00125 -0.002953125 0.0280218834111
106 1 -0.031303125 -0.00125 -0.001771875 0.0794245228494
107 1 -0.031303125 -0.00125 -0.000590625 0.119824513547
108 1 -0.031303125 -0.00125 0.000590625 0.140944376521
109 1 -0.031303125 -0.00125 0.001771875 0.0809625301646
110 1 -0.031303125 -0.00125 0.002953125 0.02150075262
111 1 -0.031303125 -0.00125 0.004134375 0.00129791108546
112 1 -0.031303125 -0.00125 0.005315625 0.00141027502454
113 1 -0.031303125 -0.00125 0.006496875 0.00103953723438
114 1 -0.031303125 -0.00125 0.007678125 0.0190201934241
115 1 -0.031303125 -0.00125 0.008859375 0.0816328749971
116 1 -0.031303125 -0.00125 0.010040625 0.107476353861
117 1 -0.031303125 -0.00125 0.011221875 0.151964184461
118 1 -0.031303125 -0.00125 0.012403125 0.175580335964
119 1 -0.031303125 -0.00125 0.013584375 0.0514931152444
120 1 -0.031303125 -0.00125 0.014765625 0.0905526274073
121 1 -0.031303125 -0.00125 0.015946875 0.0563778192507
122 1 -0.031303125 -0.00125 0.017128125 0.0111464907138
123 1 -0.031303125 -0.00125 0.018309375 0.00148412561198
124 1 -0.031303125 -0.00125 0.019490625 7.77407497692e-05
125 1 -0.030121875 -0.00125 -0.020671875 2.78532771843e-07
126 1 -0.030121875 -0.00125 -0.019490625 9.58513083814e-06
127 1 -0.030121875 -0.00125 -0.018309375 0.000527631545488
128 1 -0.030121875 -0.00125 -0.017128125 0.0034436811528
129 1 -0.030121875 -0.00125 -0.015946875 0.00963942211134
130 1 -0.030121875 -0.00125 -0.014765625 0.00899938582761
131 1 -0.030121875 -0.00125 -0.013584375 0.0377408278975
132 1 -0.030121875 -0.00125 -0.012403125 0.0528159064239
133 1 -0.030121875 -0.00125 -0.011221875 0.0317813500163
134 1 -0.030121875 -0.00125 -0.010040625 0.0301040189652
135 1 -0.030121875 -0.00125 -0.008859375 0.0115255213182
136 1 -0.030121875 -0.00125 -0.007678125 0.0050147229069
137 1 -0.030121875 -0.00125 -0.006496875 0.00226742599371
138 1 -0.030121875 -0.00125 -0.005315625 0.00378779864603
139 1 -0.030121875 -0.00125 -0.004134375 0.00996627806341
140 1 -0.030121875 -0.00125 -0.002953125 0.0119553104697
141 1 -0.030121875 -0.00125 -0.001771875 0.0464570870369
142 1 -0.030121875 -0.00125 -0.000590625 0.0460790077758
143 1 -0.030121875 -0.00125 0.000590625 0.0583031198622
144 1 -0.030121875 -0.00125 0.001771875 0.0113049105821
145 1 -0.030121875 -0.00125 0.002953125 0.00389455538102
146 1 -0.030121875 -0.00125 0.004134375 0.000254659013469
147 1 -0.030121875 -0.00125 0.005315625 0.000380381580805
148 1 -0.030121875 -0.00125 0.006496875 0.00064749610452
149 1 -0.030121875 -0.00125 0.007678125 0.0111875935303
150 1 -0.030121875 -0.00125 0.008859375 0.0302159600465
151 1 -0.030121875 -0.00125 0.010040625 0.07186559046
152 1 -0.030121875 -0.00125 0.011221875 0.128992875786
153 1 -0.030121875 -0.00125 0.012403125 0.185176193123
154 1 -0.030121875 -0.00125 0.013584375 0.13980062021
155 1 -0.030121875 -0.00125 0.014765625 0.149770240861
156 1 -0.030121875 -0.00125 0.015946875 0.0936603213699
157 1 -0.030121875 -0.00125 0.017128125 0.0242037951792
158 1 -0.030121875 -0.00125 0.018309375 0.00413390910381
159 1 -0.030121875 -0.00125 0.019490625 0.000104126776936
160 1 -0.030121875 -0.00125 0.020671875 1.94710584574e-07
161 1 -0.028940625 -0.00125 -0.021853125 0.0022872276517
162 1 -0.028940625 -0.00125 -0.020671875 0.000248797578028
163 1 -0.028940625 -0.00125 -0.019490625 0.000121325421258
164 1 -0.028940625 -0.00125 -0.018309375 0.00207053643455
165 1 -0.028940625 -0.00125 -0.017128125 0.00950675360916
166 1 -0.028940625 -0.00125 -0.015946875 0.0152116793836
167 1 -0.028940625 -0.00125 -0.014765625 0.0371390387194
168 1 -0.028940625 -0.00125 -0.013584375 0.0392270354656
169 1 -0.028940625 -0.00125 -0.012403125 0.0453026371916
170 1 -0.028940625 -0.00125 -0.011221875 0.0569534568379
171 1 -0.028940625 -0.00125 -0.010040625 0.0222965687542
172 1 -0.028940625 -0.00125 -0.008859375 0.00794506605231
173 1 -0.028940625 -0.00125 -0.007678125 0.00290121655331
174 1 -0.028940625 -0.00125 -0.006496875 0.002505566957
175 1 -0.028940625 -0.00125 -0.005315625 0.000875973493768
176 1 -0.028940625 -0.00125 -0.004134375 0.0063876831959
177 1 -0.028940625 -0.00125 -0.002953125 0.0109448020222
178 1 -0.028940625 -0.00125 -0.001771875 0.0104338228909
179 1 -0.028940625 -0.00125 -0.000590625 0.0239800371477
180 1 -0.028940625 -0.00125 0.000590625 0.00216902054658
181 1 -0.028940625 -0.00125 0.001771875 0.000317268276714
182 1 -0.028940625 -0.00125 0.002953125 0.00105806586978
183 1 -0.028940625 -0.00125 0.004134375 0.00037109195317
184 1 -0.028940625 -0.00125 0.005315625 0.00130703473747
185 1 -0.028940625 -0.00125 0.006496875 0.00297956922407
186 1 -0.028940625 -0.00125 0.007678125 0.00300615793386
187 1 -0.028940625 -0.00125 0.008859375 0.00227731611104
188 1 -0.028940625 -0.00125 0.010040625 0.011286021552
189 1 -0.028940625 -0.00125 0.011221875 0.0618836021598
190 1 -0.028940625 -0.00125 0.012403125 0.0760402623016
191 1 -0.028940625 -0.00125 0.013584375 0.0784820942991
192 1 -0.028940625 -0.00125 0.014765625 0.0779179012228
193 1 -0.028940625 -0.00125 0.015946875 0.0619448171588
194 1 -0.028940625 -0.00125 0.017128125 0.0427923903645
195 1 -0.028940625 -0.00125 0.018309375 0.0125712205659
196 1 -0.028940625 -0.00125 0.019490625 0.000173648757634
197 1 -0.028940625 -0.00125 0.020671875 1.72437784936e-05
198 1 -0.028940625 -0.00125 0.021853125 0.00111173382373
199 1 -0.027759375 -0.00125 -0.024215625 1.48893559942e-08
200 1 -0.027759375 -0.00125 -0.023034375 0.000539788095364
201 1 -0.027759375 -0.00125 -0.021853125 0.00292655526342
202 1 -0.027759375 -0.00125 -0.020671875 6.99573509756e-05
203 1 -0.027759375 -0.00125 -0.019490625 0.000103924075448
204 1 -0.027759375 -0.00125 -0.018309375 0.00401404253022
205 1 -0.027759375 -0.00125 -0.017128125 0.0182630710144
206 1 -0.027759375 -0.00125 -0.015946875 0.011780206014
207 1 -0.027759375 -0.00125 -0.014765625 0.0310312926003
208 1 -0.027759375 -0.00125 -0.013584375 0.028258116028
209 1 -0.027759375 -0.00125 -0.012403125 0.0796257112716
210 1 -0.027759375 -0.00125 -0.011221875 0.10871038083
211 1 -0.027759375 -0.00125 -0.010040625 0.0354427724142
212 1 -0.027759375 -0.00125 -0.008859375 0.0167938119553
213 1 -0.027759375 -0.00125 -0.007678125 0.00812747373007
214 1 -0.027759375 -0.00125 -0.006496875 0.0040373951498
215 1 -0.027759375 -0.00125 -0.005315625 0.00358659432594
216 1 -0.027759375 -0.00125 -0.004134375 0.0079082120991
217 1 -0.027759375 -0.00125 -0.002953125 0.0134808449922
218 1 -0.027759375 -0.00125 -0.001771875 0.0198663378329
219 1 -0.027759375 -0.00125 -0.000590625 0.038917447743
220 1 -0.027759375 -0.00125 0.000590625 0.0287943287268
221 1 -0.027759375 -0.00125 0.001771875 0.0112276139371
222 1 -0.027759375 -0.00125 0.002953125 0.0106100090408
223 1 -0.027759375 -0.00125 0.004134375 0.00326247658309
224 1 -0.027759375 -0.00125 0.005315625 0.00894616301817
225 1 -0.027759375 -0.00125 0.006496875 0.00814317127953
226 1 -0.027759375 -0.00125 0.007678125 0.0130880342796
227 1 -0.027759375 -0.00125 0.008859375 0.0122032650593
228 1 -0.027759375 -0.00125 0.010040625 0.0202836579871
229 1 -0.027759375 -0.00125 0.011221875 0.049236888387
230 1 -0.027759375 -0.00125 0.012403125 0.0734885608282
231 1 -0.027759375 -0.00125 0.013584375 0.0790435762028
232 1 -0.027759375 -0.00125 0.014765625 0.128773343786
233 1 -0.027759375 -0.00125 0.015946875 0.0538684144838
234 1 -0.027759375 -0.00125 0.017128125 0.0589672176142
235 1 -0.027759375 -0.00125 0.018309375 0.0143191408128
236 1 -0.027759375 -0.00125 0.019490625 0.000693108353829
237 1 -0.027759375 -0.00125 0.020671875 0.000289489810168
238 1 -0.027759375 -0.00125 0.021853125 0.000805779103383
239 1 -0.027759375 -0.00125 0.023034375 3.37509416854e-05
240 1 -0.027759375 -0.00125 0.024215625 1.53106676765e-09
241 1 -0.026578125 -0.00125 -0.026578125 9.94548762804e-07
242 1 -0.026578125 -0.00125 -0.025396875 1.54428937735e-08
243 1 -0.026578125 -0.00125 -0.024215625 1.65035906179e-09
244 1 -0.026578125 -0.00125 -0.023034375 1.12539068248e-06
245 1 -0.026578125 -0.00125 -0.021853125 5.13147244501e-05
246 1 -0.026578125 -0.00125 -0.020671875 0.000423181038022
247 1 -0.026578125 -0.00125 -0.019490625 0.00136804036515
248 1 -0.026578125 -0.00125 -0.018309375 0.00405479250647
249 1 -0.026578125 -0.00125 -0.017128125 0.0175307441451
250 1 -0.026578125 -0.00125 -0.015946875 0.0415609992178
251 1 -0.026578125 -0.00125 -0.014765625 0.0381806502955
252 1 -0.026578125 -0.00125 -0.013584375 0.0673101880428
253 1 -0.026578125 -0.00125 -0.012403125 0.0801566724509
254 1 -0.026578125 -0.00125 -0.011221875 0.0827522773858
255 1 -0.026578125 -0.00125 -0.010040625 0.0406062154133
256 1 -0.026578125 -0.00125 -0.008859375 0.0267887673084
257 1 -0.026578125 -0.00125 -0.007678125 0.0218845778709
258 1 -0.026578125 -0.00125 -0.006496875 0.016709723351
259 1 -0.026578125 -0.00125 -0.005315625 0.0141425816492
260 1 -0.026578125 -0.00125 -0.004134375 0.0310981388686
261 1 -0.026578125 -0.00125 -0.002953125 0.0343028974673
262 1 -0.026578125 -0.00125 -0.001771875 0.0466211852019
263 1 -0.026578125 -0.00125 -0.000590625 0.0688737341858
264 1 -0.026578125 -0.00125 0.000590625 0.0572525421567
265 1 -0.026578125 -0.00125 0.001771875 0.0325664775145
266 1 -0.026578125 -0.00125 0.002953125 0.037569845732
267 1 -0.026578125 -0.00125 0.004134375 0.0412395009707
268 1 -0.026578125 -0.00125 0.005315625 0.035390195798
269 1 -0.026578125 -0.00125 0.006496875 0.0187922848874
270 1 -0.026578125 -0.00125 0.007678125 0.0228256194457
271 1 -0.026578125 -0.00125 0.008859375 0.0194526102784
272 1 -0.026578125 -0.00125 0.010040625 0.0369716994063
273 1 -0.026578125 -0.00125 0.011221875 0.0649092525454
274 1 -0.026578125 -0.00125 0.012403125 0.0749376379829
275 1 -0.026578125 -0.00125 0.013584375 0.122277942256
276 1 -0.026578125 -0.00125 0.014765625 0.144883916799
277 1 -0.026578125 -0.00125 0.015946875 0.118720667266
278 1 -0.026578125 -0.00125 0.017128125 0.0913462294316
279 1 -0.026578125 -0.00125 0.018309375 0.0346009935606
280 1 -0.026578125 -0.00125 0.019490625 0.00538817976138
281 1 -0.026578125 -0.00125 0.020671875 0.00105899659645
282 1 -0.026578125 -0.00125 0.021853125 6.41414690754e-05
283 1 -0.026578125 -0.00125 0.023034375 1.03536164051e-06
284 1 -0.026578125 -0.00125 0.024215625 2.05862788055e-06
285 1 -0.026578125 -0.00125 0.025396875 6.69141166235e-07
286 1 -0.026578125 -0.00125 0.026578125 7.79407468384e-07
287 1 -0.025396875 -0.00125 -0.026578125 2.95917955154e-09
288 1 -0.025396875 -0.00125 -0.025396875 3.36684143917e-06
289 1 -0.025396875 -0.00125 -0.024215625 3.30507089216e-05
290 1 -0.025396875 -0.00125 -0.023034375 0.000218590405855
291 1 -0.025396875 -0.00125 -0.021853125 0.000262430051267
292 1 -0.025396875 -0.00125 -0.020671875 0.0013275941908
293 1 -0.025396875 -0.00125 -0.019490625 0.0026689659561
294 1 -0.025396875 -0.00125 -0.018309375 0.00795761945025
295 1 -0.025396875 -0.00125 -0.017128125 0.0288115925235
296 1 -0.025396875 -0.00125 -0.015946875 0.0278756261396
297 1 -0.025396875 -0.00125 -0.014765625 0.0645971029749
298 1 -0.025396875 -0.00125 -0.013584375 0.136951479778
299 1 -0.025396875 -0.00125 -0.012403125 0.160827200595
300 1 -0.025396875 -0.00125 -0.011221875 0.171478989296
301 1 -0.025396875 -0.00125 -0.010040625 0.115960894645
302 1 -0.025396875 -0.00125 -0.008859375 0.100594173299
303 1 -0.025396875 -0.00125 -0.007678125 0.0458135398905
304 1 -0.025396875 -0.00125 -0.006496875 0.0752702134971
305 1 -0.025396875 -0.00125 -0.005315625 0.0627117192865
306 1 -0.025396875 -0.00125 -0.004134375 0.0572256480146
307 1 -0.025396875 -0.00125 -0.002953125 0.060262866492
308 1 -0.025396875 -0.00125 -0.001771875 0.0786279060765
309 1 -0.025396875 -0.00125 -0.000590625 0.0815738074214
310 1 -0.025396875 -0.00125 0.000590625 0.112356105461
311 1 -0.025396875 -0.00125 0.001771875 0.0589056922372
312 1 -0.025396875 -0.00125 0.002953125 0.0634032712822
313 1 -0.025396875 -0.00125 0.004134375 0.0506373746096
314 1 -0.025396875 -0.00125 0.005315625 0.0894975490567
315 1 -0.025396875 -0.00125 0.006496875 0.0738657241902
316 1 -0.025396875 -0.00125 0.007678125 0.0944085768832
317 1 -0.025396875 -0.00125 0.008859375 0.0612341570503
318 1 -0.025396875 -0.00125 0.010040625 0.0795280731348
319 1 -0.025396875 -0.00125 0.011221875 0.0911720445623
320 1 -0.025396875 -0.00125 0.012403125 0.148952525102
321 1 -0.025396875 -0.00125 0.013584375 0.195068606292
322 1 -0.025396875 -0.00125 0.014765625 0.241100212728
323 1 -0.025396875 -0.00125 0.015946875 0.157615473618
324 1 -0.025396875 -0.00125 0.017128125 0.111256846987
325 1 -0.025396875 -0.00125 0.018309375 0.0470949320893
326 1 -0.025396875 -0.00125 0.019490625 0.00410110116222
327 1 -0.025396875 -0.00125 0.020671875 0.00346473184543
328 1 -0.025396875 -0.00125 0.021853125 0.000374112913098
329 1 -0.025396875 -0.00125 0.023034375 0.000339665270737
330 1 -0.025396875 -0.00125 0.024215625 4.92260372101e-05
331 1 -0.025396875 -0.00125 0.025396875 7.6184858862e-05
332 1 -0.025396875 -0.00125 0.026578125 2.4562018549e-10
333 1 -0.024215625 -0.00125 -0.027759375 2.23959463688e-05
334 1 -0.024215625 -0.00125 -0.026578125 0.000288534713353
335 1 -0.024215625 -0.00125 -0.025396875 0.000474491818426
336 1 -0.024215625 -0.00125 -0.024215625 0.00338893353935
337 1 -0.024215625 -0.00125 -0.023034375 0.00414313705984
338 1 -0.024215625 -0.00125 -0.021853125 0.00341667194754
339 1 -0.024215625 -0.00125 -0.020671875 0.00729850280683
340 1 -0.024215625 -0.00125 -0.019490625 0.00644136719233
341 1 -0.024215625 -0.00125 -0.018309375 0.0123130072762
342 1 -0.024215625 -0.00125 -0.017128125 0.0280932861125
343 1 -0.024215625 -0.00125 -0.015946875 0.0482651821518
344 1 -0.024215625 -0.00125 -0.014765625 0.0870860935825
345 1 -0.024215625 -0.00125 -0.013584375 0.129562156033
346 1 -0.024215625 -0.00125 -0.012403125 0.162883264491
347 1 -0.024215625 -0.00125 -0.011221875 0.186920734899
348 1 -0.024215625 -0.00125 -0.010040625 0.151540024718
349 1 -0.024215625 -0.00125 -0.008859375 0.117792250347
350 1 -0.024215625 -0.00125 -0.007678125 0.106762174185
351 1 -0.024215625 -0.00125 -0.006496875 0.144790887602
352 1 -0.024215625 -0.00125 -0.005315625 0.127428123974
353 1 -0.024215625 -0.00125 -0.004134375 0.159623255313
354 1 -0.024215625 -0.00125 -0.002953125 0.166104977338
355 1 -0.024215625 -0.00125 -0.001771875 0.159851942454
356 1 -0.024215625 -0.00125 -0.000590625 0.108370617785
357 1 -0.024215625 -0.00125 0.000590625 0.141085758449
358 1 -0.024215625 -0.00125 0.001771875 0.13114635968
359 1 -0.024215625 -0.00125 0.002953125 0.0966733225202
360 1 -0.024215625 -0.00125 0.004134375 0.0791253611731
361 1 -0.024215625 -0.00125 0.005315625 0.0986154689044
362 1 -0.024215625 -0.00125 0.006496875 0.115750331353
363 1 -0.024215625 -0.00125 0.007678125 0.14275590461
364 1 -0.024215625 -0.00125 0.008859375 0.0842059836498
365 1 -0.024215625 -0.00125 0.010040625 0.159632465901
366 1 -0.024215625 -0.00125 0.011221875 0.196214271461
367 1 -0.024215625 -0.00125 0.012403125 0.275366397019
368 1 -0.024215625 -0.00125 0.013584375 0.342755287954
369 1 -0.024215625 -0.00125 0.014765625 0.303926088706
370 1 -0.024215625 -0.00125 0.015946875 0.237925412985
371 1 -0.024215625 -0.00125 0.017128125 0.15197652208
372 1 -0.024215625 -0.00125 0.018309375 0.0678227243414
373 1 -0.024215625 -0.00125 0.019490625 0.0162836490612
374 1 -0.024215625 -0.00125 0.020671875 0.00581089958502
375 1 -0.024215625 -0.00125 0.021853125 0.0033895564063
376 1 -0.024215625 -0.00125 0.023034375 0.00104665175742
377 1 -0.024215625 -0.00125 0.024215625 0.000508517328311
378 1 -0.024215625 -0.00125 0.025396875 0.000755421185809
379 1 -0.024215625 -0.00125 0.026578125 5.72947658734e-05
380 1 -0.024215625 -0.00125 0.027759375 1.19658967391e-07
381 1 -0.023034375 -0.00125 -0.027759375 0.0253910258927
382 1 -0.023034375 -0.00125 -0.026578125 0.0269550784462
383 1 -0.023034375 -0.00125 -0.025396875 0.0625728729652
384 1 -0.023034375 -0.00125 -0.024215625 0.0346936715412
385 1 -0.023034375 -0.00125 -0.023034375 0.030016299095
386 1 -0.023034375 -0.00125 -0.021853125 0.0104681889602
387 1 -0.023034375 -0.00125 -0.020671875 0.0322646328871
388 1 -0.023034375 -0.00125 -0.019490625 0.0278721379913
389 1 -0.023034375 -0.00125 -0.018309375 0.0299608128278
390 1 -0.023034375 -0.00125 -0.017128125 0.0406162761554
391 1 -0.023034375 -0.00125 -0.015946875 0.052942537907
392 1 -0.023034375 -0.00125 -0.014765625 0.102147136825
393 1 -0.023034375 -0.00125 -0.013584375 0.191376009434
394 1 -0.023034375 -0.00125 -0.012403125 0.243682067925
395 1 -0.023034375 -0.00125 -0.011221875 0.27669667735
396 1 -0.023034375 -0.00125 -0.010040625 0.257357051532
397 1 -0.023034375 -0.00125 -0.008859375 0.291880870365
398 1 -0.023034375 -0.00125 -0.007678125 0.233493465626
399 1 -0.023034375 -0.00125 -0.006496875 0.164249344782
400 1 -0.023034375 -0.00125 -0.005315625 0.149766853593
401 1 -0.023034375 -0.00125 -0.004134375 0.132581839361
402 1 -0.023034375 -0.00125 -0.002953125 0.204056779799
403 1 -0.023034375 -0.00125 -0.001771875 0.187440152126
404 1 -0.023034375 -0.00125 -0.000590625 0.113999477241
405 1 -0.023034375 -0.00125 0.000590625 0.170133018082
406 1 -0.023034375 -0.00125 0.001771875 0.153101331767
407 1 -0.023034375 -0.00125 0.002953125 0.15140701656
408 1 -0.023034375 -0.00125 0.004134375 0.104797422913
409 1 -0.023034375 -0.00125 0.005315625 0.112533572093
410 1 -0.023034375 -0.00125 0.006496875 0.122817744897
411 1 -0.023034375 -0.00125 0.007678125 0.1726555819
412 1 -0.023034375 -0.00125 0.008859375 0.155429135623
413 1 -0.023034375 -0.00125 0.010040625 0.211047187479
414 1 -0.023034375 -0.00125 0.011221875 0.221602619771
415 1 -0.023034375 -0.00125 0.012403125 0.303540902593
416 1 -0.023034375 -0.00125 0.013584375 0.347239771555
417 1 -0.023034375 -0.00125 0.014765625 0.345638403674
418 1 -0.023034375 -0.00125 0.015946875 0.2634390146
419 1 -0.023034375 -0.00125 0.017128125 0.178526993992
420 1 -0.023034375 -0.00125 0.018309375 0.0797973009647
421 1 -0.023034375 -0.00125 0.019490625 0.0337127902081
422 1 -0.023034375 -0.00125 0.020671875 0.0332113351893
423 1 -0.023034375 -0.00125 0.021853125 0.0279160360076
424 1 -0.023034375 -0.00125 0.023034375 0.0262831449887
425 1 -0.023034375 -0.00125 0.024215625 0.0378601982083
426 1 -0.023034375 -0.00125 0.025396875 0.0314435931285
427 1 -0.023034375 -0.00125 0.026578125 0.0186103721716
428 1 -0.023034375 -0.00125 0.027759375 0.0197685034435
429 1 -0.021853125 -0.00125 -0.028940625 0.105441512832
430 1 -0.021853125 -0.00125 -0.027759375 0.29126365133
431 1 -0.021853125 -0.00125 -0.026578125 0.215512219313
432 1 -0.021853125 -0.00125 -0.025396875 0.126448379801
433 1 -0.021853125 -0.00125 -0.024215625 0.0977072487332
434 1 -0.021853125 -0.00125 -0.023034375 0.0653476487009
435 1 -0.021853125 -0.00125 -0.021853125 0.0596205236724
436 1 -0.021853125 -0.00125 -0.020671875 0.0670138578727
437 1 -0.021853125 -0.00125 -0.019490625 0.0354837562219
438 1 -0.021853125 -0.00125 -0.018309375 0.0821127728762
439 1 -0.021853125 -0.00125 -0.017128125 0.130619397286
440 1 -0.021853125 -0.00125 -0.015946875 0.154165394663
441 1 -0.021853125 -0.00125 -0.014765625 0.142436433861
442 1 -0.021853125 -0.00125 -0.013584375 0.206651573818
443 1 -0.021853125 -0.00125 -0.012403125 0.330216998995
444 1 -0.021853125 -0.00125 -0.011221875 0.33129273196
445 1 -0.021853125 -0.00125 -0.010040625 0.315826564194
446 1 -0.021853125 -0.00125 -0.008859375 0.310848329179
447 1 -0.021853125 -0.00125 -0.007678125 0.314476296538
448 1 -0.021853125 -0.00125 -0.006496875 0.222536738655
449 1 -0.021853125 -0.00125 -0.005315625 0.177269927971
450 1 -0.021853125 -0.00125 -0.004134375 0.162552012416
451 1 -0.021853125 -0.00125 -0.002953125 0.196035176199
452 1 -0.021853125 -0.00125 -0.001771875 0.14383189918
453 1 -0.021853125 -0.00125 -0.000590625 0.14940761578
454 1 -0.021853125 -0.00125 0.000590625 0.155717167296
455 1 -0.021853125 -0.00125 0.001771875 0.169089983776
456 1 -0.021853125 -0.00125 0.002953125 0.169701397331
457 1 -0.021853125 -0.00125 0.004134375 0.134676821844
458 1 -0.021853125 -0.00125 0.005315625 0.147795374364
459 1 -0.021853125 -0.00125 0.006496875 0.123855711028
460 1 -0.021853125 -0.00125 0.007678125 0.148551316192
461 1 -0.021853125 -0.00125 0.008859375 0.199420604418
462 1 -0.021853125 -0.00125 0.010040625 0.262322315705
463 1 -0.021853125 -0.00125 0.011221875 0.261039663612
464 1 -0.021853125 -0.00125 0.012403125 0.337658363754
465 1 -0.021853125 -0.00125 0.013584375 0.400831546376
466 1 -0.021853125 -0.00125 0.014765625 0.350585699423
467 1 -0.021853125 -0.00125 0.015946875 0.233539906715
468 1 -0.021853125 -0.00125 0.017128125 0.16064759121
469 1 -0.021853125 -0.00125 0.018309375 0.101014617138
470 1 -0.021853125 -0.00125 0.019490625 0.0907391220335
471 1 -0.021853125 -0.00125 0.020671875 0.0452641110323
472 1 -0.021853125 -0.00125 0.021853125 0.054332633333
473 1 -0.021853125 -0.00125 0.023034375 0.0576713014748
474 1 -0.021853125 -0.00125 0.024215625 0.0835824591412
475 1 -0.021853125 -0.00125 0.025396875 0.139445808786
476 1 -0.021853125 -0.00125 0.026578125 0.133545312572
477 1 -0.021853125 -0.00125 0.027759375 0.161811486674
478 1 -0.021853125 -0.00125 0.028940625 0.193066068761
479 1 -0.020671875 -0.00125 -0.030121875 0.00021963305405
480 1 -0.020671875 -0.00125 -0.028940625 0.00245281382822
481 1 -0.020671875 -0.00125 -0.027759375 0.140542469436
482 1 -0.020671875 -0.00125 -0.026578125 0.118237818668
483 1 -0.020671875 -0.00125 -0.025396875 0.0773998705157
484 1 -0.020671875 -0.00125 -0.024215625 0.0123102835715
485 1 -0.020671875 -0.00125 -0.023034375 0.0548360844291
486 1 -0.020671875 -0.00125 -0.021853125 0.0678705281007
487 1 -0.020671875 -0.00125 -0.020671875 0.0814223463736
488 1 -0.020671875 -0.00125 -0.019490625 0.100930418095
489 1 -0.020671875 -0.00125 -0.018309375 0.165065498381
490 1 -0.020671875 -0.00125 -0.017128125 0.171015382532
491 1 -0.020671875 -0.00125 -0.015946875 0.234284387716
492 1 -0.020671875 -0.00125 -0.014765625 0.207792633107
493 1 -0.020671875 -0.00125 -0.013584375 0.253771515604
494 1 -0.020671875 -0.00125 -0.012403125 0.383740948041
495 1 -0.020671875 -0.00125 -0.011221875 0.385207351112
496 1 -0.020671875 -0.00125 -0.010040625 0.389360102263
497 1 -0.020671875 -0.00125 -0.008859375 0.413319723249
498 1 -0.020671875 -0.00125 -0.007678125 0.374294949708
499 1 -0.020671875 -0.00125 -0.006496875 0.296910500422
500 1 -0.020671875 -0.00125 -0.005315625 0.240855899314
501 1 -0.020671875 -0.00125 -0.004134375 0.19303079684
502 1 -0.020671875 -0.00125 -0.002953125 0.190931560751
503 1 -0.020671875 -0.00125 -0.001771875 0.1544468978
504 1 -0.020671875 -0.00125 -0.000590625 0.158055139097
505 1 -0.020671875 -0.00125 0.000590625 0.116632870088
506 1 -0.020671875 -0.00125 0.001771875 0.158034218498
507 1 -0.020671875 -0.00125 0.002953125 0.139707241271
508 1 -0.020671875 -0.00125 0.004134375 0.16076283364
509 1 -0.020671875 -0.00125 0.005315625 0.112413249191
510 1 -0.020671875 -0.00125 0.006496875 0.152384930734
511 1 -0.020671875 -0.00125 0.007678125 0.13723757445
512 1 -0.020671875 -0.00125 0.008859375 0.210488326181
513 1 -0.020671875 -0.00125 0.010040625 0.2707172632
514 1 -0.020671875 -0.00125 0.011221875 0.315357006276
515 1 -0.020671875 -0.00125 0.012403125 0.369133014361
516 1 -0.020671875 -0.00125 0.013584375 0.367462259208
517 1 -0.020671875 -0.00125 0.014765625 0.333481173295
518 1 -0.020671875 -0.00125 0.015946875 0.257977252674
519 1 -0.020671875 -0.00125 0.017128125 0.175048085537
520 1 -0.020671875 -0.00125 0.018309375 0.143418392768
521 1 -0.020671875 -0.00125 0.019490625 0.125466989242
522 1 -0.020671875 -0.00125 0.020671875 0.121793317529
523 1 -0.020671875 -0.00125 0.021853125 0.0972288184047
524 1 -0.020671875 -0.00125 0.023034375 0.0907281352886
525 1 -0.020671875 -0.00125 0.024215625 0.0808556714399
526 1 -0.020671875 -0.00125 0.025396875 0.0837457498584
527 1 -0.020671875 -0.00125 0.026578125 0.0952699106342