ITEM: TIMESTEP
0
ITEM: NUMBER OF ATOMS
3080
ITEM: BOX BOUNDS ss ss ss
-3.7007399999999996e-02 3.7007399999999996e-02
-2.0002499999999999e-03 2.5000000000000004e-07
-3.7007399999999996e-02 3.7007399999999996e-02
ITEM: ATOMS id type x y z c_1
0 1 -0.037209375 -0.00125 -0.000590625 0.994694408646
1 1 -0.036028125 -0.00125 -0.007678125 0.0
2 1 -0.036028125 -0.00125 -0.006496875 0.0
3 1 -0.036028125 -0.00125 -0.005315625 0.0
4 1 -0.036028125 -0.00125 -0.004134375 0.0
5 1 -0.036028125 -0.00125 -0.002953125 0.0
6 1 -0.036028125 -0.00125 -0.001771875 0.0
7 1 -0.036028125 -0.00125 -0.000590625 0.0
8 1 -0.036028125 -0.00125 0.000590625 0.0
9 1 -0.036028125 -0.00125 0.001771875 0.0
10 1 -0.036028125 -0.00125 0.002953125 0.0
11 1 -0.036028125 -0.00125 0.004134375 0.0
12 1 -0.036028125 -0.00125 0.005315625 0.0
13 1 -0.036028125 -0.00125 0.006496875 0.0
14 1 -0.036028125 -0.00125 0.007678125 0.0
15 1 -0.034846875 -0.00125 -0.011221875 0.0
16 1 -0.034846875 -0.00125 -0.010040625 0.0
17 1 -0.034846875 -0.00125 -0.008859375 0.0
18 1 -0.034846875 -0.00125 -0.007678125 0.0
19 1 -0.034846875 -0.00125 -0.006496875 0.0
20 1 -0.034846875 -0.00125 -0.005315625 0.0
21 1 -0.034846875 -0.00125 -0.004134375 0.0
22 1 -0.034846875 -0.00125 -0.002953125 0.0
23 1 -0.034846875 -0.00125 -0.001771875 0.0
24 1 -0.034846875 -0.00125 -0.000590625 0.0
25 1 -0.034846875 -0.00125 0.000590625 0.0
26 1 -0.034846875 -0.00125 0.001771875 0.0
27 1 -0.034846875 -0.00125 0.002953125 0.0
28 1 -0.034846875 -0.00125 0.004134375 0.0
29 1 -0.034846875 -0.00125 0.005315625 0.0
30 1 -0.034846875 -0.00125 0.006496875 0.0
31 1 -0.034846875 -0.00125 0.007678125 0.0
32 1 -0.034846875 -0.00125 0.008859375 0.0
33 1 -0.034846875 -0.00125 0.010040625 0.0
34 1 -0.034846875 -0.00125 0.011221875 0.0
35 1 -0.033665625 -0.00125 -0.013584375 0.0
36 1 -0.033665625 -0.00125 -0.012403125 0.0
37 1 -0.033665625 -0.00125 -0.011221875 0.0
38 1 -0.033665625 -0.00125 -0.010040625 0.0
39 1 -0.033665625 -0.00125 -0.008859375 0.0
40 1 -0.033665625 -0.00125 -0.007678125 0.0
41 1 -0.033665625 -0.00125 -0.006496875 0.0
42 1 -0.033665625 -0.00125 -0.005315625 0.0
43 1 -0.033665625 -0.00125 -0.004134375 0.0
44 1 -0.033665625 -0.00125 -0.002953125 0.0
45 1 -0.033665625 -0.00125 -0.001771875 0.0
46 1 -0.033665625 -0.00125 -0.000590625 0.0
47 1 -0.033665625 -0.00125 0.000590625 0.0
48 1 -0.033665625 -0.00125 0.001771875 0.0
49 1 -0.033665625 -0.00125 0.002953125 0.0
50 1 -0.033665625 -0.00125 0.004134375 0.0
51 1 -0.033665625 -0.00125 0.005315625 0.0
52 1 -0.033665625 -0.00125 0.006496875 0.0
53 1 -0.033665625 -0.00125 0.007678125 0.0
54 1 -0.033665625 -0.00125 0.008859375 0.0
55 1 -0.033665625 -0.00125 0.010040625 0.0
56 1 -0.033665625 -0.00125 0.011221875 0.0
57 1 -0.033665625 -0.00125 0.012403125 0.0
58 1 -0.033665625 -0.00125 0.013584375 0.0
59 1 -0.032484375 -0.00125 -0.018309375 0.0
60 1 -0.032484375 -0.00125 -0.017128125 0.0
61 1 -0.032484375 -0.00125 -0.015946875 0.0
62 1 -0.032484375 -0.00125 -0.014765625 0.0
63 1 -0.032484375 -0.00125 -0.013584375 0.0
64 1 -0.032484375 -0.00125 -0.012403125 0.0
65 1 -0.032484375 -0.00125 -0.011221875 0.0
66 1 -0.032484375 -0.00125 -0.010040625 0.0
67 1 -0.032484375 -0.00125 -0.008859375 0.0
68 1 -0.032484375 -0.00125 -0.007678125 0.0
69 1 -0.032484375 -0.00125 -0.006496875 0.0
70 1 -0.032484375 -0.00125 -0.005315625 0.0
71 1 -0.032484375 -0.00125 -0.004134375 0.0
72 1 -0.032484375 -0.00125 -0.002953125 0.0
73 1 -0.032484375 -0.00125 -0.001771875 0.0
74 1 -0.032484375 -0.00125 -0.000590625 0.0
75 1 -0.032484375 -0.00125 0.000590625 0.0
76 1 -0.032484375 -0.00125 0.001771875 0.0
77 1 -0.032484375 -0.00125 0.002953125 0.0
78 1 -0.032484375 -0.00125 0.004134375 0.0
79 1 -0.032484375 -0.00125 0.005315625 0.0
80 1 -0.032484375 -0.00125 0.006496875 0.0
81 1 -0.032484375 -0.00125 0.007678125 0.0
82 1 -0.032484375 -0.00125 0.008859375 0.0
83 1 -0.032484375 -0.00125 0.010040625 0.0
84 1 -0.032484375 -0.00125 0.011221875 0.0
85 1 -0.032484375 -0.00125 0.012403125 0.0
86 1 -0.032484375 -0.00125 0.013584375 0.0
87 1 -0.032484375 -0.00125 0.014765625 0.0
88 1 -0.032484375 -0.00125 0.015946875 0.0
89 1 -0.032484375 -0.00125 0.017128125 0.0
90 1 -0.032484375 -0.00125 0.018309375 0.0
91 1 -0.031303125 -0.00125 -0.019490625 0.0
92 1 -0.031303125 -0.00125 -0.018309375 0.0
93 1 -0.031303125 -0.00125 -0.017128125 0.0
94 1 -0.031303125 -0.00125 -0.015946875 0.0
95 1 -0.031303125 -0.00125 -0.014765625 0.0
96 1 -0.031303125 -0.00125 -0.013584375 0.0
97 1 -0.031303125 -0.00125 -0.012403125 0.0
98 1 -0.031303125 -0.00125 -0.011221875 0.0
99 1 -0.031303125 -0.00125 -0.010040625 0.0
100 1 -0.031303125 -0.00125 -0.008859375 0.0
101 1 -0.031303125 -0.00125 -0.007678125 0.0
102 1 -0.031303125 -0.00125 -0.006496875 0.0
103 1 -0.031303125 -0.00125 -0.005315625 0.0
104 1 -0.031303125 -0.00125 -0.004134375 0.0
105 1 -0.031303125 -0.00125 -0.002953125 0.0
106 1 -0.031303125 -0.00125 -0.001771875 0.0
107 1 -0.031303125 -0.00125 -0.000590625 0.0
108 1 -0.031303125 -0.00125 0.000590625 0.0
109 1 -0.031303125 -0.00125 0.001771875 0.0
110 1 -0.031303125 -0.00125 0.002953125 0.0
111 1 -0.031303125 -0.00125 0.004134375 0.0
112 1 -0.031303125 -0.00125 0.005315625 0.0
113 1 -0.031303125 -0.00125 0.006496875 0.0
114 1 -0.031303125 -0.00125 0.007678125 0.0
115 1 -0.031303125 -0.00125 0.008859375 0.0
116 1 -0.031303125 -0.00125 0.010040625 0.0
117 1 -0.031303125 -0.00125 0.011221875 0.0
118 1 -0.031303125 -0.00125 0.012403125 0.0
119 1 -0.031303125 -0.00125 0.013584375 0.0
120 1 -0.031303125 -0.00125 0.014765625 0.0
121 1 -0.031303125 -0.00125 0.015946875 0.0
122 1 -0.031303125 -0.00125 0.017128125 0.0
123 1 -0.031303125 -0.00125 0.018309375 0.0
124 1 -0.031303125 -0.00125 0.019490625 0.0
125 1 -0.030121875 -0.00125 -0.020671875 0.0
126 1 -0.030121875 -0.00125 -0.019490625 0.0
127 1 -0.030121875 -0.00125 -0.018309375 0.0
128 1 -0.030121875 -0.00125 -0.017128125 0.0
129 1 -0.030121875 -0.00125 -0.015946875 0.0
130 1 -0.030121875 -0.00125 -0.014765625 0.0
131 1 -0.030121875 -0.00125 -0.013584375 0.0
132 1 -0.030121875 -0.00125 -0.012403125 0.0
133 1 -0.030121875 -0.00125 -0.011221875 0.0
134 1 -0.030121875 -0.00125 -0.010040625 0.0
135 1 -0.030121875 -0.00125 -0.008859375 0.0
136 1 -0.030121875 -0.00125 -0.007678125 0.0
137 1 -0.030121875 -0.00125 -0.006496875 0.0
138 1 -0.030121875 -0.00125 -0.005315625 0.0
139 1 -0.030121875 -0.00125 -0.004134375 0.0
140 1 -0.030121875 -0.00125 -0.002953125 0.0
141 1 -0.030121875 -0.00125 -0.001771875 0.0
142 1 -0.030121875 -0.00125 -0.000590625 0.0
143 1 -0.030121875 -0.00125 0.000590625 0.0
144 1 -0.030121875 -0.00125 0.001771875 0.0
145 1 -0.030121875 -0.00125 0.002953125 0.0
146 1 -0.030121875 -0.00125 0.004134375 0.0
147 1 -0.030121875 -0.00125 0.005315625 0.0
148 1 -0.030121875 -0.00125 0.006496875 0.0
149 1 -0.030121875 -0.00125 0.007678125 0.0
150 1 -0.030121875 -0.00125 0.008859375 0.0
151 1 -0.030121875 -0.00125 0.010040625 0.0
152 1 -0.030121875 -0.00125 0.011221875 0.0
153 1 -0.030121875 -0.00125 0.012403125 0.0
154 1 -0.030121875 -0.00125 0.013584375 0.0
155 1 -0.030121875 -0.00125 0.014765625 0.0
156 1 -0.030121875 -0.00125 0.015946875 0.0
157 1 -0.030121875 -0.00125 0.017128125 0.0
158 1 -0.030121875 -0.00125 0.018309375 0.0
159 1 -0.030121875 -0.00125 0.019490625 0.0
160 1 -0.030121875 -0.00125 0.020671875 0.0
161 1 -0.028940625 -0.00125 -0.021853125 0.0
162 1 -0.028940625 -0.00125 -0.020671875 0.0
163 1 -0.028940625 -0.00125 -0.019490625 0.0
164 1 -0.028940625 -0.00125 -0.018309375 0.0
165 1 -0.028940625 -0.00125 -0.017128125 0.0
166 1 -0.028940625 -0.00125 -0.015946875 0.0
167 1 -0.028940625 -0.00125 -0.014765625 0.0
168 1 -0.028940625 -0.00125 -0.013584375 0.0
169 1 -0.028940625 -0.00125 -0.012403125 0.0
170 1 -0.028940625 -0.00125 -0.011221875 0.0
171 1 -0.028940625 -0.00125 -0.010040625 0.0
172 1 -0.028940625 -0.00125 -0.008859375 0.0
173 1 -0.028940625 -0.00125 -0.007678125 0.0
174 1 -0.028940625 -0.00125 -0.006496875 0.0
175 1 -0.028940625 -0.00125 -0.005315625 0.0
176 1 -0.028940625 -0.00125 -0.004134375 0.0
177 1 -0.028940625 -0.00125 -0.002953125 0.0
178 1 -0.028940625 -0.00125 -0.001771875 0.0
179 1 -0.028940625 -0.00125 -0.000590625 0.0
180 1 -0.028940625 -0.00125 0.000590625 0.0
181 1 -0.028940625 -0.00125 0.001771875 0.0
182 1 -0.028940625 -0.00125 0.002953125 0.0
183 1 -0.028940625 -0.00125 0.004134375 0.0
184 1 -0.028940625 -0.00125 0.005315625 0.0
185 1 -0.028940625 -0.00125 0.006496875 0.0
186 1 -0.028940625 -0.00125 0.007678125 0.0
187 1 -0.028940625 -0.00125 0.008859375 0.0
188 1 -0.028940625 -0.00125 0.010040625 0.0
189 1 -0.028940625 -0.00125 0.011221875 0.0
190 1 -0.028940625 -0.00125 0.012403125 0.0
191 1 -0.028940625 -0.00125 0.013584375 0.0
192 1 -0.028940625 -0.00125 0.014765625 0.0
193 1 -0.028940625 -0.00125 0.015946875 0.0
194 1 -0.028940625 -0.00125 0.017128125 0.0
195 1 -0.028940625 -0.00125 0.018309375 0.0
196 1 -0.028940625 -0.00125 0.019490625 0.0
197 1 -0.028940625 -0.00125 0.020671875 0.0
198 1 -0.028940625 -0.00125 0.021853125 0.0
199 1 -0.027759375 -0.00125 -0.024215625 0.0
200 1 -0.027759375 -0.00125 -0.023034375 0.0
201 1 -0.027759375 -0.00125 -0.021853125 0.0
202 1 -0.027759375 -0.00125 -0.020671875 0.0
203 1 -0.027759375 -0.00125 -0.019490625 0.0
204 1 -0.027759375 -0.00125 -0.018309375 0.0
205 1 -0.027759375 -0.00125 -0.017128125 0.0
206 1 -0.027759375 -0.00125 -0.015946875 0.0
207 1 -0.027759375 -0.00125 -0.014765625 0.0
208 1 -0.027759375 -0.00125 -0.013584375 0.0
209 1 -0.027759375 -0.00125 -0.012403125 0.0
210 1 -0.027759375 -0.00125 -0.011221875 0.0
211 1 -0.027759375 -0.00125 -0.010040625 0.0
212 1 -0.027759375 -0.00125 -0.008859375 0.0
213 1 -0.027759375 -0.00125 -0.007678125 0.0
214 1 -0.027759375 -0.00125 -0.006496875 2.28447914462e-157
215 1 -0.027759375 -0.00125 -0.005315625 5.53238754287e-140
216 1 -0.027759375 -0.00125 -0.004134375 0.0
217 1 -0.027759375 -0.00125 -0.002953125 7.35322402083e-130
218 1 -0.027759375 -0.00125 -0.001771875 0.0
219 1 -0.027759375 -0.00125 -0.000590625 2.12579380373e-74
220 1 -0.027759375 -0.00125 0.000590625 1.78116966708e-107
221 1 -0.027759375 -0.00125 0.001771875 2.23726745494e-183
222 1 -0.027759375 -0.00125 0.002953125 7.31691427354e-119
223 1 -0.027759375 -0.00125 0.004134375 4.35485369846e-184
224 1 -0.027759375 -0.00125 0.005315625 0.0
225 1 -0.027759375 -0.00125 0.006496875 0.0
226 1 -0.027759375 -0.00125 0.007678125 0.0
227 1 -0.027759375 -0.00125 0.008859375 0.0
228 1 -0.027759375 -0.00125 0.010040625 0.0
229 1 -0.027759375 -0.00125 0.011221875 0.0
230 1 -0.027759375 -0.00125 0.012403125 0.0
231 1 -0.027759375 -0.00125 0.013584375 0.0
232 1 -0.027759375 -0.00125 0.014765625 0.0
233 1 -0.027759375 -0.00125 0.015946875 0.0
234 1 -0.027759375 -0.00125 0.017128125 0.0
235 1 -0.027759375 -0.00125 0.018309375 0.0
236 1 -0.027759375 -0.00125 0.019490625 0.0
237 1 -0.027759375 -0.00125 0.020671875 0.0
238 1 -0.027759375 -0.00125 0.021853125 0.0
239 1 -0.027759375 -0.00125 0.023034375 0.0
240 1 -0.027759375 -0.00125 0.024215625 0.0
241 1 -0.026578125 -0.00125 -0.026578125 0.0
242 1 -0.026578125 -0.00125 -0.025396875 0.0
243 1 -0.026578125 -0.00125 -0.024215625 0.0
244 1 -0.026578125 -0.00125 -0.023034375 0.0
245 1 -0.026578125 -0.00125 -0.021853125 0.0
246 1 -0.026578125 -0.00125 -0.020671875 0.0
247 1 -0.026578125 -0.00125 -0.019490625 0.0
248 1 -0.026578125 -0.00125 -0.018309375 0.0
249 1 -0.026578125 -0.00125 -0.017128125 0.0
250 1 -0.026578125 -0.00125 -0.015946875 0.0
251 1 -0.026578125 -0.00125 -0.014765625 0.0
252 1 -0.026578125 -0.00125 -0.013584375 0.0
253 1 -0.026578125 -0.00125 -0.012403125 1.9907961697e-233
254 1 -0.026578125 -0.00125 -0.011221875 2.71030232712e-151
255 1 -0.026578125 -0.00125 -0.010040625 0.0
256 1 -0.026578125 -0.00125 -0.008859375 1.78355575028e-223
257 1 -0.026578125 -0.00125 -0.007678125 9.51769776321e-64
258 1 -0.026578125 -0.00125 -0.006496875 2.25348554466e-54
259 1 -0.026578125 -0.00125 -0.005315625 9.50855300068e-50
260 1 -0.026578125 -0.00125 -0.004134375 5.95784879055e-92
261 1 -0.026578125 -0.00125 -0.002953125 2.1006546792e-132
262 1 -0.026578125 -0.00125 -0.001771875 3.45035348643e-76
263 1 -0.026578125 -0.00125 -0.000590625 1.23871508114e-44
264 1 -0.026578125 -0.00125 0.000590625 2.30477053488e-54
265 1 -0.026578125 -0.00125 0.001771875 8.46581413048e-43
266 1 -0.026578125 -0.00125 0.002953125 7.75216946344e-46
267 1 -0.026578125 -0.00125 0.004134375 6.14271782281e-100
268 1 -0.026578125 -0.00125 0.005315625 6.47960747665e-118
269 1 -0.026578125 -0.00125 0.006496875 2.12408516938e-260
270 1 -0.026578125 -0.00125 0.007678125 1.2392306782e-93
271 1 -0.026578125 -0.00125 0.008859375 1.95471497418e-240
272 1 -0.026578125 -0.00125 0.010040625 9.00189015246e-291
273 1 -0.026578125 -0.00125 0.011221875 0.0
274 1 -0.026578125 -0.00125 0.012403125 0.0
275 1 -0.026578125 -0.00125 0.013584375 0.0
276 1 -0.026578125 -0.00125 0.014765625 0.0
277 1 -0.026578125 -0.00125 0.015946875 0.0
278 1 -0.026578125 -0.00125 0.017128125 0.0
279 1 -0.026578125 -0.00125 0.018309375 0.0
280 1 -0.026578125 -0.00125 0.019490625 0.0
281 1 -0.026578125 -0.00125 0.020671875 0.0
282 1 -0.026578125 -0.00125 0.021853125 0.0
283 1 -0.026578125 -0.00125 0.023034375 0.0
284 1 -0.026578125 -0.00125 0.024215625 0.0
285 1 -0.026578125 -0.00125 0.025396875 0.0
286 1 -0.026578125 -0.00125 0.026578125 0.0
287 1 -0.025396875 -0.00125 -0.026578125 0.0
288 1 -0.025396875 -0.00125 -0.025396875 0.0
289 1 -0.025396875 -0.00125 -0.024215625 0.0
290 1 -0.025396875 -0.00125 -0.023034375 0.0
291 1 -0.025396875 -0.00125 -0.021853125 0.0
292 1 -0.025396875 -0.00125 -0.020671875 0.0
293 1 -0.025396875 -0.00125 -0.019490625 0.0
294 1 -0.025396875 -0.00125 -0.018309375 0.0
295 1 -0.025396875 -0.00125 -0.017128125 0.0
296 1 -0.025396875 -0.00125 -0.015946875 0.0
297 1 -0.025396875 -0.00125 -0.014765625 0.0
298 1 -0.025396875 -0.00125 -0.013584375 0.0
299 1 -0.025396875 -0.00125 -0.012403125 7.91797885707e-97
300 1 -0.025396875 -0.00125 -0.011221875 2.19751876529e-173
301 1 -0.025396875 -0.00125 -0.010040625 7.24255767806e-48
302 1 -0.025396875 -0.00125 -0.008859375 1.209921669e-62
303 1 -0.025396875 -0.00125 -0.007678125 1.90597642178e-74
304 1 -0.025396875 -0.00125 -0.006496875 1.17715587606e-130
305 1 -0.025396875 -0.00125 -0.005315625 2.14962046389e-54
306 1 -0.025396875 -0.00125 -0.004134375 7.50515983288e-117
307 1 -0.025396875 -0.00125 -0.002953125 3.38456632833e-60
308 1 -0.025396875 -0.00125 -0.001771875 5.95797391498e-51
309 1 -0.025396875 -0.00125 -0.000590625 7.81903249824e-86
310 1 -0.025396875 -0.00125 0.000590625 6.96736349552e-53
311 1 -0.025396875 -0.00125 0.001771875 2.30686258016e-53
312 1 -0.025396875 -0.00125 0.002953125 1.39803834645e-37
313 1 -0.025396875 -0.00125 0.004134375 1.5565379989e-26
314 1 -0.025396875 -0.00125 0.005315625 9.3043710232e-54
315 1 -0.025396875 -0.00125 0.006496875 7.53342684737e-95
316 1 -0.025396875 -0.00125 0.007678125 1.41229088493e-60
317 1 -0.025396875 -0.00125 0.008859375 9.1636484938e-77
318 1 -0.025396875 -0.00125 0.010040625 2.45850990404e-57
319 1 -0.025396875 -0.00125 0.011221875 1.22915888683e-76
320 1 -0.025396875 -0.00125 0.012403125 0.0
321 1 -0.025396875 -0.00125 0.013584375 1.53027710533e-274
322 1 -0.025396875 -0.00125 0.014765625 0.0
323 1 -0.025396875 -0.00125 0.015946875 0.0
324 1 -0.025396875 -0.00125 0.017128125 0.0
325 1 -0.025396875 -0.00125 0.018309375 0.0
326 1 -0.025396875 -0.00125 0.019490625 0.0
327 1 -0.025396875 -0.00125 0.020671875 0.0
328 1 -0.025396875 -0.00125 0.021853125 0.0
329 1 -0.025396875 -0.00125 0.023034375 0.0
330 1 -0.025396875 -0.00125 0.024215625 0.0
331 1 -0.025396875 -0.00125 0.025396875 0.0
332 1 -0.025396875 -0.00125 0.026578125 0.0
333 1 -0.024215625 -0.00125 -0.027759375 0.0
334 1 -0.024215625 -0.00125 -0.026578125 0.0
335 1 -0.024215625 -0.00125 -0.025396875 0.0
336 1 -0.024215625 -0.00125 -0.024215625 0.0
337 1 -0.024215625 -0.00125 -0.023034375 0.0
338 1 -0.024215625 -0.00125 -0.021853125 0.0
339 1 -0.024215625 -0.00125 -0.020671875 0.0
340 1 -0.024215625 -0.00125 -0.019490625 0.0
341 1 -0.024215625 -0.00125 -0.018309375 0.0
342 1 -0.024215625 -0.00125 -0.017128125 0.0
343 1 -0.024215625 -0.00125 -0.015946875 0.0
344 1 -0.024215625 -0.00125 -0.014765625 2.06276410567e-163
345 1 -0.024215625 -0.00125 -0.013584375 1.07296576323e-113
346 1 -0.024215625 -0.00125 -0.012403125 5.48500618744e-33
347 1 -0.024215625 -0.00125 -0.011221875 8.10143032238e-37
348 1 -0.024215625 -0.00125 -0.010040625 1.71475936794e-22
349 1 -0.024215625 -0.00125 -0.008859375 3.94747092243e-44
350 1 -0.024215625 -0.00125 -0.007678125 1.41901846738e-86
351 1 -0.024215625 -0.00125 -0.006496875 2.29845909009e-42
352 1 -0.024215625 -0.00125 -0.005315625 2.21218640864e-23
353 1 -0.024215625 -0.00125 -0.004134375 2.65060503694e-14
354 1 -0.024215625 -0.00125 -0.002953125 7.69124102052e-40
355 1 -0.024215625 -0.00125 -0.001771875 1.04302471973e-36
356 1 -0.024215625 -0.00125 -0.000590625 3.1791453244e-24
357 1 -0.024215625 -0.00125 0.000590625 3.41955733936e-18
358 1 -0.024215625 -0.00125 0.001771875 2.40890785706e-21
359 1 -0.024215625 -0.00125 0.002953125 7.61888746453e-10
360 1 -0.024215625 -0.00125 0.004134375 6.36277619406e-15
361 1 -0.024215625 -0.00125 0.005315625 6.7227717476e-20
362 1 -0.024215625 -0.00125 0.006496875 9.9419524995e-58
363 1 -0.024215625 -0.00125 0.007678125 6.04402487096e-32
364 1 -0.024215625 -0.00125 0.008859375 6.11059908067e-41
365 1 -0.024215625 -0.00125 0.010040625 1.26281171426e-28
366 1 -0.024215625 -0.00125 0.011221875 6.21391303031e-35
367 1 -0.024215625 -0.00125 0.012403125 6.33530861062e-43
368 1 -0.024215625 -0.00125 0.013584375 3.08176801235e-138
369 1 -0.024215625 -0.00125 0.014765625 1.56836815021e-179
370 1 -0.024215625 -0.00125 0.015946875 0.0
371 1 -0.024215625 -0.00125 0.017128125 2.4490074177e-238
372 1 -0.024215625 -0.00125 0.018309375 1.86796374097e-177
373 1 -0.024215625 -0.00125 0.019490625 0.0
374 1 -0.024215625 -0.00125 0.020671875 0.0
375 1 -0.024215625 -0.00125 0.021853125 0.0
376 1 -0.024215625 -0.00125 0.023034375 0.0
377 1 -0.024215625 -0.00125 0.024215625 0.0
378 1 -0.024215625 -0.00125 0.025396875 0.0
379 1 -0.024215625 -0.00125 0.026578125 0.0
380 1 -0.024215625 -0.00125 0.027759375 0.0
381 1 -0.023034375 -0.00125 -0.027759375 0.0
382 1 -0.023034375 -0.00125 -0.026578125 0.0
383 1 -0.023034375 -0.00125 -0.025396875 0.0
384 1 -0.023034375 -0.00125 -0.024215625 0.0
385 1 -0.023034375 -0.00125 -0.023034375 0.0
386 1 -0.023034375 -0.00125 -0.021853125 0.0
387 1 -0.023034375 -0.00125 -0.020671875 0.0
388 1 -0.023034375 -0.00125 -0.019490625 0.0
389 1 -0.023034375 -0.00125 -0.018309375 0.0
390 1 -0.023034375 -0.00125 -0.017128125 0.0
391 1 -0.023034375 -0.00125 -0.015946875 2.56668048834e-183
392 1 -0.023034375 -0.00125 -0.014765625 6.60809096521e-63
393 1 -0.023034375 -0.00125 -0.013584375 4.53426586385e-50
394 1 -0.023034375 -0.00125 -0.012403125 4.07107851458e-30
395 1 -0.023034375 -0.00125 -0.011221875 3.90883610735e-34
396 1 -0.023034375 -0.00125 -0.010040625 2.62617125488e-31
397 1 -0.023034375 -0.00125 -0.008859375 1.37197818116e-40
398 1 -0.023034375 -0.00125 -0.007678125 2.13518438769e-31
399 1 -0.023034375 -0.00125 -0.006496875 3.55949832375e-26
400 1 -0.023034375 -0.00125 -0.005315625 1.66501284877e-17
401 1 -0.023034375 -0.00125 -0.004134375 1.18334252469e-35
402 1 -0.023034375 -0.00125 -0.002953125 1.58707986051e-16
403 1 -0.023034375 -0.00125 -0.001771875 1.40908607633e-23
404 1 -0.023034375 -0.00125 -0.000590625 3.12482409641e-12
405 1 -0.023034375 -0.00125 0.000590625 5.7695866304e-17
406 1 -0.023034375 -0.00125 0.001771875 4.56730090133e-12
407 1 -0.023034375 -0.00125 0.002953125 1.04065097057e-08
408 1 -0.023034375 -0.00125 0.004134375 2.4171310728e-12
409 1 -0.023034375 -0.00125 0.005315625 8.51725569671e-61
410 1 -0.023034375 -0.00125 0.006496875 6.71195220361e-18
411 1 -0.023034375 -0.00125 0.007678125 1.60253345202e-17
412 1 -0.023034375 -0.00125 0.008859375 1.85503411651e-19
413 1 -0.023034375 -0.00125 0.010040625 6.72911305617e-51
414 1 -0.023034375 -0.00125 0.011221875 1.26634156773e-68
415 1 -0.023034375 -0.00125 0.012403125 8.25538249996e-64
416 1 -0.023034375 -0.00125 0.013584375 3.19746802215e-106
417 1 -0.023034375 -0.00125 0.014765625 1.26760674433e-158
418 1 -0.023034375 -0.00125 0.015946875 2.90504023623e-129
419 1 -0.023034375 -0.00125 0.017128125 3.45462599771e-251
420 1 -0.023034375 -0.00125 0.018309375 5.06974143705e-190
421 1 -0.023034375 -0.00125 0.019490625 1.05139430939e-300
422 1 -0.023034375 -0.00125 0.020671875 0.0
423 1 -0.023034375 -0.00125 0.021853125 0.0
424 1 -0.023034375 -0.00125 0.023034375 0.0
425 1 -0.023034375 -0.00125 0.024215625 0.0
426 1 -0.023034375 -0.00125 0.025396875 0.0
427 1 -0.023034375 -0.00125 0.026578125 0.0
428 1 -0.023034375 -0.00125 0.027759375 0.0
429 1 -0.021853125 -0.00125 -0.028940625 0.0
430 1 -0.021853125 -0.00125 -0.027759375 0.0
431 1 -0.021853125 -0.00125 -0.026578125 0.0
432 1 -0.021853125 -0.00125 -0.025396875 0.0
433 1 -0.021853125 -0.00125 -0.024215625 0.0
434 1 -0.021853125 -0.00125 -0.023034375 0.0
435 1 -0.021853125 -0.00125 -0.021853125 3.9741277435e-102
436 1 -0.021853125 -0.00125 -0.020671875 4.41060732146e-191
437 1 -0.021853125 -0.00125 -0.019490625 0.0
438 1 -0.021853125 -0.00125 -0.018309375 0.0
439 1 -0.021853125 -0.00125 -0.017128125 1.22739819958e-123
440 1 -0.021853125 -0.00125 -0.015946875 9.15424313279e-38
441 1 -0.021853125 -0.00125 -0.014765625 1.7256701803e-24
442 1 -0.021853125 -0.00125 -0.013584375 7.06227092328e-26
443 1 -0.021853125 -0.00125 -0.012403125 8.15631457288e-17
444 1 -0.021853125 -0.00125 -0.011221875 5.52322838039e-15
445 1 -0.021853125 -0.00125 -0.010040625 1.22699753673e-28
446 1 -0.021853125 -0.00125 -0.008859375 1.87570111637e-23
447 1 -0.021853125 -0.00125 -0.007678125 7.73310423566e-08
448 1 -0.021853125 -0.00125 -0.006496875 7.76292574897e-10
449 1 -0.021853125 -0.00125 -0.005315625 4.98052720189e-16
450 1 -0.021853125 -0.00125 -0.004134375 2.90536492657e-10
451 1 -0.021853125 -0.00125 -0.002953125 1.47923842273e-15
452 1 -0.021853125 -0.00125 -0.001771875 8.43130210028e-16
453 1 -0.021853125 -0.00125 -0.000590625 1.83380687865e-08
454 1 -0.021853125 -0.00125 0.000590625 9.95499208818e-14
455 1 -0.021853125 -0.00125 0.001771875 1.09014113922e-19
456 1 -0.021853125 -0.00125 0.002953125 8.68098840357e-16
457 1 -0.021853125 -0.00125 0.004134375 2.06464056536e-16
458 1 -0.021853125 -0.00125 0.005315625 1.32139936837e-19
459 1 -0.021853125 -0.00125 0.006496875 4.78177038782e-23
460 1 -0.021853125 -0.00125 0.007678125 1.41411032924e-27
461 1 -0.021853125 -0.00125 0.008859375 1.10518526343e-11
462 1 -0.021853125 -0.00125 0.010040625 2.39982904224e-28
463 1 -0.021853125 -0.00125 0.011221875 1.34469187386e-46
464 1 -0.021853125 -0.00125 0.012403125 6.45818081433e-30
465 1 -0.021853125 -0.00125 0.013584375 5.24735643428e-80
466 1 -0.021853125 -0.00125 0.014765625 1.45211956944e-60
467 1 -0.021853125 -0.00125 0.015946875 2.1217094096e-72
468 1 -0.021853125 -0.00125 0.017128125 4.47019372802e-94
469 1 -0.021853125 -0.00125 0.018309375 2.52687550462e-146
470 1 -0.021853125 -0.00125 0.019490625 6.67879467727e-171
471 1 -0.021853125 -0.00125 0.020671875 0.0
472 1 -0.021853125 -0.00125 0.021853125 0.0
473 1 -0.021853125 -0.00125 0.023034375 0.0
474 1 -0.021853125 -0.00125 0.024215625 0.0
475 1 -0.021853125 -0.00125 0.025396875 0.0
476 1 -0.021853125 -0.00125 0.026578125 0.0
477 1 -0.021853125 -0.00125 0.027759375 0.0
478 1 -0.021853125 -0.00125 0.028940625 0.0
479 1 -0.020671875 -0.00125 -0.030121875 0.0
480 1 -0.020671875 -0.00125 -0.028940625 0.0
481 1 -0.020671875 -0.00125 -0.027759375 0.0
482 1 -0.020671875 -0.00125 -0.026578125 0.0
483 1 -0.020671875 -0.00125 -0.025396875 0.0
484 1 -0.020671875 -0.00125 -0.024215625 0.0
485 1 -0.020671875 -0.00125 -0.023034375 0.0
486 1 -0.020671875 -0.00125 -0.021853125 1.6926102739e-92
487 1 -0.020671875 -0.00125 -0.020671875 5.56377369809e-137
488 1 -0.020671875 -0.00125 -0.019490625 5.78210792484e-199
489 1 -0.020671875 -0.00125 -0.018309375 3.38058411193e-199
490 1 -0.020671875 -0.00125 -0.017128125 7.99954284345e-46
491 1 -0.020671875 -0.00125 -0.015946875 3.78815934024e-47
492 1 -0.020671875 -0.00125 -0.014765625 1.79303667155e-21
493 1 -0.020671875 -0.00125 -0.013584375 7.52453862515e-29
494 1 -0.020671875 -0.00125 -0.012403125 8.43843506635e-20
495 1 -0.020671875 -0.00125 -0.011221875 1.87278402962e-29
496 1 -0.020671875 -0.00125 -0.010040625 8.69469135871e-20
497 1 -0.020671875 -0.00125 -0.008859375 6.45446313838e-21
498 1 -0.020671875 -0.00125 -0.007678125 1.36032245074e-15
499 1 -0.020671875 -0.00125 -0.006496875 6.3312423573e-12
500 1 -0.020671875 -0.00125 -0.005315625 1.00180751861e-22
501 1 -0.020671875 -0.00125 -0.004134375 8.98407322388e-15
502 1 -0.020671875 -0.00125 -0.002953125 1.601241485e-27
503 1 -0.020671875 -0.00125 -0.001771875 1.76835266962e-19
504 1 -0.020671875 -0.00125 -0.000590625 4.19775957435e-11
505 1 -0.020671875 -0.00125 0.000590625 1.98859327609e-13
506 1 -0.020671875 -0.00125 0.001771875 1.357112514e-24
507 1 -0.020671875 -0.00125 0.002953125 5.7797166578e-25
508 1 -0.020671875 -0.00125 0.004134375 5.10838125449e-31
509 1 -0.020671875 -0.00125 0.005315625 2.30891595685e-15
510 1 -0.020671875 -0.00125 0.006496875 5.76300980371e-26
511 1 -0.020671875 -0.00125 0.007678125 8.90636894212e-20
512 1 -0.020671875 -0.00125 0.008859375 7.14683811929e-11
513 1 -0.020671875 -0.00125 0.010040625 1.93106332837e-38
514 1 -0.020671875 -0.00125 0.011221875 6.64911298157e-32
515 1 -0.020671875 -0.00125 0.012403125 1.6340223446e-36
516 1 -0.020671875 -0.00125 0.013584375 5.38905014154e-60
517 1 -0.020671875 -0.00125 0.014765625 3.45238709813e-49
518 1 -0.020671875 -0.00125 0.015946875 8.45005843029e-23
519 1 -0.020671875 -0.00125 0.017128125 3.54576867145e-39
520 1 -0.020671875 -0.00125 0.018309375 2.14856673129e-52
521 1 -0.020671875 -0.00125 0.019490625 3.67327591119e-70
522 1 -0.020671875 -0.00125 0.020671875 4.69356966227e-244
523 1 -0.020671875 -0.00125 0.021853125 0.0
524 1 -0.020671875 -0.00125 0.023034375 0.0
525 1 -0.020671875 -0.00125 0.024215625 0.0
526 1 -0.020671875 -0.00125 0.025396875 0.0
527 1 -0.020671875 -0.00125 0.026578125 0.0
528 1 -0.020671875 -0.00125 0.027759375 0.0
529 1 -0.020671875 -0.00125 0.028940625 0.0
530 1 -0.020671875 -0.00125 0.030121875 0.0
531 1 -0.019490625 -0.00125 -0.031303125 3.63305109914e-228
532 1 -0.019490625 -0.00125 -0.030121875 0.0
533 1 -0.019490625 -0.00125 -0.028940625 0.0
534 1 -0.019490625 -0.00125 -0.027759375 1.6017618725e-282
535 1 -0.019490625 -0.00125 -0.026578125 5.54900841805e-106
536 1 -0.019490625 -0.00125 -0.025396875 8.40317304093e-69
537 1 -0.019490625 -0.00125 -0.024215625 1.19748206721e-98
538 1 -0.019490625 -0.00125 -0.023034375 1.41110903642e-126
539 1 -0.019490625 -0.00125 -0.021853125 2.20810763407e-101
540 1 -0.019490625 -0.00125 -0.020671875 3.82620771955e-83
541 1 -0.019490625 -0.00125 -0.019490625 2.33716275872e-45
542 1 -0.019490625 -0.00125 -0.018309375 7.34115202336e-31
543 1 -0.019490625 -0.00125 -0.017128125 5.26358711178e-26
544 1 -0.019490625 -0.00125 -0.015946875 8.19499756975e-23
545 1 -0.019490625 -0.00125 -0.014765625 3.00263686629e-24
546 1 -0.019490625 -0.00125 -0.013584375 1.46184252366e-31
547 1 -0.019490625 -0.00125 -0.012403125 1.05588726011e-35
548 1 -0.019490625 -0.00125 -0.011221875 3.11500922063e-22
549 1 -0.019490625 -0.00125 -0.010040625 2.94215484366e-16
550 1 -0.019490625 -0.00125 -0.008859375 1.21377130792e-20
551 1 -0.019490625 -0.00125 -0.007678125 2.5190561361e-17
552 1 -0.019490625 -0.00125 -0.006496875 1.02780954025e-17
553 1 -0.019490625 -0.00125 -0.005315625 1.07431432199e-08
554 1 -0.019490625 -0.00125 -0.004134375 2.09264346786e-17
555 1 -0.019490625 -0.00125 -0.002953125 1.20139816767e-29
556 1 -0.019490625 -0.00125 -0.001771875 4.54105903814e-25
557 1 -0.019490625 -0.00125 -0.000590625 1.97173523993e-16
558 1 -0.019490625 -0.00125 0.000590625 1.05739468125e-14
559 1 -0.019490625 -0.00125 0.001771875 1.78342782604e-16
560 1 -0.019490625 -0.00125 0.002953125 3.02344467779e-26
561 1 -0.019490625 -0.00125 0.004134375 4.25530478929e-17
562 1 -0.019490625 -0.00125 0.005315625 1.89366234203e-10
563 1 -0.019490625 -0.00125 0.006496875 7.37797598575e-10
564 1 -0.019490625 -0.00125 0.007678125 1.7272568426e-07
565 1 -0.019490625 -0.00125 0.008859375 6.98265010471e-10
566 1 -0.019490625 -0.00125 0.010040625 3.70050909923e-15
567 1 -0.019490625 -0.00125 0.011221875 1.27398044107e-17
568 1 -0.019490625 -0.00125 0.012403125 1.60550617784e-16
569 1 -0.019490625 -0.00125 0.013584375 2.26468269265e-26
570 1 -0.019490625 -0.00125 0.014765625 4.0733070268e-22
571 1 -0.019490625 -0.00125 0.015946875 1.5972289449e-18
572 1 -0.019490625 -0.00125 0.017128125 1.40634185494e-19
573 1 -0.019490625 -0.00125 0.018309375 3.81784927118e-22
574 1 -0.019490625 -0.00125 0.019490625 1.80390334178e-50
575 1 -0.019490625 -0.00125 0.020671875 1.03720970186e-56
576 1 -0.019490625 -0.00125 0.021853125 3.23114863379e-80
577 1 -0.019490625 -0.00125 0.023034375 1.89473678375e-174
578 1 -0.019490625 -0.00125 0.024215625 0.0
579 1 -0.019490625 -0.00125 0.025396875 0.0
580 1 -0.019490625 -0.00125 0.026578125 0.0
581 1 -0.019490625 -0.00125 0.027759375 0.0
582 1 -0.019490625 -0.00125 0.028940625 0.0
583 1 -0.019490625 -0.00125 0.030121875 0.0
584 1 -0.019490625 -0.00125 0.031303125 0.0
585 1 -0.018309375 -0.00125 -0.032484375 0.0
586 1 -0.018309375 -0.00125 -0.031303125 4.21599352473e-134
587 1 -0.018309375 -0.00125 -0.030121875 0.0
588 1 -0.018309375 -0.00125 -0.028940625 2.25554217826e-305
589 1 -0.018309375 -0.00125 -0.027759375 9.24229053104e-192
590 1 -0.018309375 -0.00125 -0.026578125 1.74036976387e-57
591 1 -0.018309375 -0.00125 -0.025396875 7.03909454593e-55
592 1 -0.018309375 -0.00125 -0.024215625 1.12081213377e-52
593 1 -0.018309375 -0.00125 -0.023034375 9.54125807003e-42
594 1 -0.018309375 -0.00125 -0.021853125 7.56742821964e-35
595 1 -0.018309375 -0.00125 -0.020671875 6.82357209331e-25