ITEM: TIMESTEP
0
ITEM: NUMBER OF ATOMS
3080
ITEM: BOX BOUNDS ss ss ss
-3.7007399999999996e-02 3.7007399999999996e-02
-2.0002499999999999e-03 2.5000000000000004e-07
-3.7007399999999996e-02 3.7007399999999996e-02
ITEM: ATOMS id type x y z c_1
0 1 -0.037209375 -0.00125 -0.000590625 1.74705561138e-07
1 1 -0.036028125 -0.00125 -0.007678125 3.54241226436e-187
2 1 -0.036028125 -0.00125 -0.006496875 4.33597199811e-165
3 1 -0.036028125 -0.00125 -0.005315625 0.0
4 1 -0.036028125 -0.00125 -0.004134375 4.91310962909e-210
5 1 -0.036028125 -0.00125 -0.002953125 5.61626306744e-56
6 1 -0.036028125 -0.00125 -0.001771875 2.59631719497e-61
7 1 -0.036028125 -0.00125 -0.000590625 2.2536380874e-40
8 1 -0.036028125 -0.00125 0.000590625 1.77183807126e-37
9 1 -0.036028125 -0.00125 0.001771875 3.31263436045e-27
10 1 -0.036028125 -0.00125 0.002953125 7.50946764407e-71
11 1 -0.036028125 -0.00125 0.004134375 4.74624214042e-126
12 1 -0.036028125 -0.00125 0.005315625 5.30567979757e-185
13 1 -0.036028125 -0.00125 0.006496875 2.11664025254e-64
14 1 -0.036028125 -0.00125 0.007678125 1.06741022501e-45
15 1 -0.034846875 -0.00125 -0.011221875 8.06719333904e-42
16 1 -0.034846875 -0.00125 -0.010040625 5.31434668789e-90
17 1 -0.034846875 -0.00125 -0.008859375 2.2422085399e-122
18 1 -0.034846875 -0.00125 -0.007678125 0.0
19 1 -0.034846875 -0.00125 -0.006496875 0.0
20 1 -0.034846875 -0.00125 -0.005315625 0.0
21 1 -0.034846875 -0.00125 -0.004134375 4.61952735686e-163
22 1 -0.034846875 -0.00125 -0.002953125 6.8659187753e-146
23 1 -0.034846875 -0.00125 -0.001771875 8.46046866908e-125
24 1 -0.034846875 -0.00125 -0.000590625 3.85702345513e-88
25 1 -0.034846875 -0.00125 0.000590625 1.57434215999e-68
26 1 -0.034846875 -0.00125 0.001771875 4.00757140522e-78
27 1 -0.034846875 -0.00125 0.002953125 5.29568849806e-138
28 1 -0.034846875 -0.00125 0.004134375 9.50561893547e-269
29 1 -0.034846875 -0.00125 0.005315625 1.36870388596e-252
30 1 -0.034846875 -0.00125 0.006496875 4.34136269245e-202
31 1 -0.034846875 -0.00125 0.007678125 6.26875165324e-57
32 1 -0.034846875 -0.00125 0.008859375 1.39880270672e-09
33 1 -0.034846875 -0.00125 0.010040625 1.69457929943e-28
34 1 -0.034846875 -0.00125 0.011221875 1.27028761698e-09
35 1 -0.033665625 -0.00125 -0.013584375 8.4870706403e-75
36 1 -0.033665625 -0.00125 -0.012403125 6.50901407511e-25
37 1 -0.033665625 -0.00125 -0.011221875 2.11173128168e-43
38 1 -0.033665625 -0.00125 -0.010040625 7.8391989841e-49
39 1 -0.033665625 -0.00125 -0.008859375 1.55482663892e-86
40 1 -0.033665625 -0.00125 -0.007678125 0.0
41 1 -0.033665625 -0.00125 -0.006496875 0.0
42 1 -0.033665625 -0.00125 -0.005315625 0.0
43 1 -0.033665625 -0.00125 -0.004134375 0.0
44 1 -0.033665625 -0.00125 -0.002953125 1.35959917263e-73
45 1 -0.033665625 -0.00125 -0.001771875 7.17088890288e-66
46 1 -0.033665625 -0.00125 -0.000590625 1.63043908359e-53
47 1 -0.033665625 -0.00125 0.000590625 6.74316536732e-41
48 1 -0.033665625 -0.00125 0.001771875 1.47479647051e-63
49 1 -0.033665625 -0.00125 0.002953125 2.91124265632e-85
50 1 -0.033665625 -0.00125 0.004134375 1.22113248344e-200
51 1 -0.033665625 -0.00125 0.005315625 4.57303565282e-181
52 1 -0.033665625 -0.00125 0.006496875 1.72308236074e-132
53 1 -0.033665625 -0.00125 0.007678125 4.6369480422e-33
54 1 -0.033665625 -0.00125 0.008859375 5.92912669328e-15
55 1 -0.033665625 -0.00125 0.010040625 2.41525891935e-15
56 1 -0.033665625 -0.00125 0.011221875 6.48614520045e-08
57 1 -0.033665625 -0.00125 0.012403125 0.000223598785786
58 1 -0.033665625 -0.00125 0.013584375 5.25682177043e-33
59 1 -0.032484375 -0.00125 -0.018309375 1.49176570527e-67
60 1 -0.032484375 -0.00125 -0.017128125 1.44456470358e-126
61 1 -0.032484375 -0.00125 -0.015946875 6.1230769291e-24
62 1 -0.032484375 -0.00125 -0.014765625 2.0597863437e-43
63 1 -0.032484375 -0.00125 -0.013584375 1.90711133603e-53
64 1 -0.032484375 -0.00125 -0.012403125 3.88749618911e-47
65 1 -0.032484375 -0.00125 -0.011221875 5.75138194418e-39
66 1 -0.032484375 -0.00125 -0.010040625 3.81340610352e-56
67 1 -0.032484375 -0.00125 -0.008859375 1.65051581871e-64
68 1 -0.032484375 -0.00125 -0.007678125 8.31488121585e-43
69 1 -0.032484375 -0.00125 -0.006496875 0.0
70 1 -0.032484375 -0.00125 -0.005315625 0.0
71 1 -0.032484375 -0.00125 -0.004134375 4.88679298707e-200
72 1 -0.032484375 -0.00125 -0.002953125 9.65440819933e-58
73 1 -0.032484375 -0.00125 -0.001771875 2.4870748702e-46
74 1 -0.032484375 -0.00125 -0.000590625 2.66545312693e-51
75 1 -0.032484375 -0.00125 0.000590625 4.51255725138e-41
76 1 -0.032484375 -0.00125 0.001771875 1.08944041711e-40
77 1 -0.032484375 -0.00125 0.002953125 4.10777902616e-42
78 1 -0.032484375 -0.00125 0.004134375 8.79339549095e-143
79 1 -0.032484375 -0.00125 0.005315625 3.75074798351e-78
80 1 -0.032484375 -0.00125 0.006496875 6.44673480271e-65
81 1 -0.032484375 -0.00125 0.007678125 2.24520105545e-27
82 1 -0.032484375 -0.00125 0.008859375 7.84666314408e-21
83 1 -0.032484375 -0.00125 0.010040625 3.65768120832e-18
84 1 -0.032484375 -0.00125 0.011221875 7.2890602155e-08
85 1 -0.032484375 -0.00125 0.012403125 3.46885093121e-10
86 1 -0.032484375 -0.00125 0.013584375 2.34704992861e-85
87 1 -0.032484375 -0.00125 0.014765625 5.0345036725e-17
88 1 -0.032484375 -0.00125 0.015946875 1.0816829515e-18
89 1 -0.032484375 -0.00125 0.017128125 1.90250522893e-08
90 1 -0.032484375 -0.00125 0.018309375 3.81356046898e-10
91 1 -0.031303125 -0.00125 -0.019490625 2.45072470738e-272
92 1 -0.031303125 -0.00125 -0.018309375 2.6706635609e-133
93 1 -0.031303125 -0.00125 -0.017128125 2.21158400013e-86
94 1 -0.031303125 -0.00125 -0.015946875 2.42369807676e-69
95 1 -0.031303125 -0.00125 -0.014765625 1.67180925371e-35
96 1 -0.031303125 -0.00125 -0.013584375 1.93126397708e-51
97 1 -0.031303125 -0.00125 -0.012403125 2.19422636894e-59
98 1 -0.031303125 -0.00125 -0.011221875 3.59003707299e-52
99 1 -0.031303125 -0.00125 -0.010040625 1.66182284263e-51
100 1 -0.031303125 -0.00125 -0.008859375 2.70285558963e-62
101 1 -0.031303125 -0.00125 -0.007678125 2.54742910442e-54
102 1 -0.031303125 -0.00125 -0.006496875 4.58055487167e-90
103 1 -0.031303125 -0.00125 -0.005315625 1.64052426342e-116
104 1 -0.031303125 -0.00125 -0.004134375 2.06683962057e-75
105 1 -0.031303125 -0.00125 -0.002953125 8.38961211115e-53
106 1 -0.031303125 -0.00125 -0.001771875 1.54879769563e-30
107 1 -0.031303125 -0.00125 -0.000590625 1.45741257136e-34
108 1 -0.031303125 -0.00125 0.000590625 3.04727355401e-35
109 1 -0.031303125 -0.00125 0.001771875 7.96695713178e-28
110 1 -0.031303125 -0.00125 0.002953125 8.11393656217e-26
111 1 -0.031303125 -0.00125 0.004134375 5.41285069302e-35
112 1 -0.031303125 -0.00125 0.005315625 1.35738095076e-22
113 1 -0.031303125 -0.00125 0.006496875 1.20304380811e-27
114 1 -0.031303125 -0.00125 0.007678125 1.68079897387e-23
115 1 -0.031303125 -0.00125 0.008859375 1.88874632123e-35
116 1 -0.031303125 -0.00125 0.010040625 1.62499248986e-36
117 1 -0.031303125 -0.00125 0.011221875 4.5287320343e-22
118 1 -0.031303125 -0.00125 0.012403125 8.15828363481e-18
119 1 -0.031303125 -0.00125 0.013584375 1.0895930291e-27
120 1 -0.031303125 -0.00125 0.014765625 7.02125561704e-27
121 1 -0.031303125 -0.00125 0.015946875 1.02561609722e-21
122 1 -0.031303125 -0.00125 0.017128125 7.95458414116e-18
123 1 -0.031303125 -0.00125 0.018309375 5.78287237651e-13
124 1 -0.031303125 -0.00125 0.019490625 1.47924032234e-22
125 1 -0.030121875 -0.00125 -0.020671875 0.0
126 1 -0.030121875 -0.00125 -0.019490625 0.0
127 1 -0.030121875 -0.00125 -0.018309375 1.84562784253e-122
128 1 -0.030121875 -0.00125 -0.017128125 3.70656793109e-44
129 1 -0.030121875 -0.00125 -0.015946875 1.29926957124e-89
130 1 -0.030121875 -0.00125 -0.014765625 2.49556387414e-36
131 1 -0.030121875 -0.00125 -0.013584375 4.54442957749e-30
132 1 -0.030121875 -0.00125 -0.012403125 2.51664724638e-26
133 1 -0.030121875 -0.00125 -0.011221875 1.141199452e-29
134 1 -0.030121875 -0.00125 -0.010040625 1.332810867e-59
135 1 -0.030121875 -0.00125 -0.008859375 8.78172376614e-58
136 1 -0.030121875 -0.00125 -0.007678125 7.46195908389e-59
137 1 -0.030121875 -0.00125 -0.006496875 4.47343009864e-71
138 1 -0.030121875 -0.00125 -0.005315625 7.78072903267e-41
139 1 -0.030121875 -0.00125 -0.004134375 9.57591834969e-37
140 1 -0.030121875 -0.00125 -0.002953125 6.48615335028e-26
141 1 -0.030121875 -0.00125 -0.001771875 1.11597803945e-20
142 1 -0.030121875 -0.00125 -0.000590625 3.33508843791e-40
143 1 -0.030121875 -0.00125 0.000590625 1.23734062682e-29
144 1 -0.030121875 -0.00125 0.001771875 2.47618445803e-16
145 1 -0.030121875 -0.00125 0.002953125 6.25272268614e-21
146 1 -0.030121875 -0.00125 0.004134375 6.49981691632e-28
147 1 -0.030121875 -0.00125 0.005315625 1.69459802095e-14
148 1 -0.030121875 -0.00125 0.006496875 1.03025289624e-21
149 1 -0.030121875 -0.00125 0.007678125 2.17370724018e-19
150 1 -0.030121875 -0.00125 0.008859375 2.41103315466e-42
151 1 -0.030121875 -0.00125 0.010040625 6.84477223102e-25
152 1 -0.030121875 -0.00125 0.011221875 1.16281280523e-30
153 1 -0.030121875 -0.00125 0.012403125 4.5251485329e-24
154 1 -0.030121875 -0.00125 0.013584375 1.02790660213e-23
155 1 -0.030121875 -0.00125 0.014765625 2.43157878772e-36
156 1 -0.030121875 -0.00125 0.015946875 3.0770940578e-37
157 1 -0.030121875 -0.00125 0.017128125 6.2565896558e-24
158 1 -0.030121875 -0.00125 0.018309375 1.34172089421e-20
159 1 -0.030121875 -0.00125 0.019490625 6.01864549428e-21
160 1 -0.030121875 -0.00125 0.020671875 1.24971261184e-17
161 1 -0.028940625 -0.00125 -0.021853125 4.89320628051e-250
162 1 -0.028940625 -0.00125 -0.020671875 0.0
163 1 -0.028940625 -0.00125 -0.019490625 4.55041430668e-124
164 1 -0.028940625 -0.00125 -0.018309375 1.22729132194e-116
165 1 -0.028940625 -0.00125 -0.017128125 4.84283387671e-60
166 1 -0.028940625 -0.00125 -0.015946875 9.80041158874e-35
167 1 -0.028940625 -0.00125 -0.014765625 1.79639353154e-29
168 1 -0.028940625 -0.00125 -0.013584375 1.50331929083e-25
169 1 -0.028940625 -0.00125 -0.012403125 1.51237917901e-35
170 1 -0.028940625 -0.00125 -0.011221875 7.18911081834e-35
171 1 -0.028940625 -0.00125 -0.010040625 6.95862466605e-35
172 1 -0.028940625 -0.00125 -0.008859375 1.18480623284e-37
173 1 -0.028940625 -0.00125 -0.007678125 2.61802636163e-25
174 1 -0.028940625 -0.00125 -0.006496875 6.52181247249e-18
175 1 -0.028940625 -0.00125 -0.005315625 5.52445449678e-22
176 1 -0.028940625 -0.00125 -0.004134375 8.65128512309e-22
177 1 -0.028940625 -0.00125 -0.002953125 1.59620321971e-28
178 1 -0.028940625 -0.00125 -0.001771875 2.1347674725e-34
179 1 -0.028940625 -0.00125 -0.000590625 3.91091926983e-18
180 1 -0.028940625 -0.00125 0.000590625 2.17275088213e-26
181 1 -0.028940625 -0.00125 0.001771875 2.2794979021e-19
182 1 -0.028940625 -0.00125 0.002953125 3.24118431597e-16
183 1 -0.028940625 -0.00125 0.004134375 9.59305675028e-21
184 1 -0.028940625 -0.00125 0.005315625 7.95083812505e-19
185 1 -0.028940625 -0.00125 0.006496875 3.30484894472e-22
186 1 -0.028940625 -0.00125 0.007678125 2.22516453839e-30
187 1 -0.028940625 -0.00125 0.008859375 3.22785350686e-32
188 1 -0.028940625 -0.00125 0.010040625 9.86961095572e-43
189 1 -0.028940625 -0.00125 0.011221875 1.30875852488e-30
190 1 -0.028940625 -0.00125 0.012403125 1.36895575087e-41
191 1 -0.028940625 -0.00125 0.013584375 7.73319120123e-57
192 1 -0.028940625 -0.00125 0.014765625 2.22642526599e-54
193 1 -0.028940625 -0.00125 0.015946875 3.58282505845e-26
194 1 -0.028940625 -0.00125 0.017128125 1.02437964844e-19
195 1 -0.028940625 -0.00125 0.018309375 1.0057752925e-21
196 1 -0.028940625 -0.00125 0.019490625 2.02917019937e-18
197 1 -0.028940625 -0.00125 0.020671875 5.09614341493e-11
198 1 -0.028940625 -0.00125 0.021853125 3.46765421443e-07
199 1 -0.027759375 -0.00125 -0.024215625 0.0
200 1 -0.027759375 -0.00125 -0.023034375 0.0
201 1 -0.027759375 -0.00125 -0.021853125 1.14978558484e-129
202 1 -0.027759375 -0.00125 -0.020671875 0.0
203 1 -0.027759375 -0.00125 -0.019490625 2.60349170805e-94
204 1 -0.027759375 -0.00125 -0.018309375 6.57326489859e-104
205 1 -0.027759375 -0.00125 -0.017128125 3.05698866464e-28
206 1 -0.027759375 -0.00125 -0.015946875 8.54176440868e-19
207 1 -0.027759375 -0.00125 -0.014765625 1.12267230808e-15
208 1 -0.027759375 -0.00125 -0.013584375 1.30713665789e-21
209 1 -0.027759375 -0.00125 -0.012403125 2.58439772564e-18
210 1 -0.027759375 -0.00125 -0.011221875 1.51753399654e-24
211 1 -0.027759375 -0.00125 -0.010040625 1.9805944202e-25
212 1 -0.027759375 -0.00125 -0.008859375 4.1659371519e-28
213 1 -0.027759375 -0.00125 -0.007678125 5.90619647585e-17
214 1 -0.027759375 -0.00125 -0.006496875 2.87317471979e-14
215 1 -0.027759375 -0.00125 -0.005315625 5.99771651579e-13
216 1 -0.027759375 -0.00125 -0.004134375 5.45212128679e-18
217 1 -0.027759375 -0.00125 -0.002953125 3.55425606492e-15
218 1 -0.027759375 -0.00125 -0.001771875 5.42870928114e-22
219 1 -0.027759375 -0.00125 -0.000590625 3.72089378528e-09
220 1 -0.027759375 -0.00125 0.000590625 1.00891187646e-08
221 1 -0.027759375 -0.00125 0.001771875 9.39577182955e-09
222 1 -0.027759375 -0.00125 0.002953125 2.61386019236e-09
223 1 -0.027759375 -0.00125 0.004134375 6.75662268498e-13
224 1 -0.027759375 -0.00125 0.005315625 4.18905883883e-09
225 1 -0.027759375 -0.00125 0.006496875 5.77726184554e-16
226 1 -0.027759375 -0.00125 0.007678125 1.42985758276e-13
227 1 -0.027759375 -0.00125 0.008859375 1.46699416851e-07
228 1 -0.027759375 -0.00125 0.010040625 2.85423390422e-09
229 1 -0.027759375 -0.00125 0.011221875 1.57055673893e-31
230 1 -0.027759375 -0.00125 0.012403125 3.50443560975e-33
231 1 -0.027759375 -0.00125 0.013584375 2.58457976588e-68
232 1 -0.027759375 -0.00125 0.014765625 3.03953387282e-76
233 1 -0.027759375 -0.00125 0.015946875 4.03912567624e-33
234 1 -0.027759375 -0.00125 0.017128125 1.50410897791e-47
235 1 -0.027759375 -0.00125 0.018309375 6.19226460475e-22
236 1 -0.027759375 -0.00125 0.019490625 1.73355752382e-13
237 1 -0.027759375 -0.00125 0.020671875 2.42052684592e-09
238 1 -0.027759375 -0.00125 0.021853125 0.00956710328624
239 1 -0.027759375 -0.00125 0.023034375 0.000843098756867
240 1 -0.027759375 -0.00125 0.024215625 1.25820437449e-26
241 1 -0.026578125 -0.00125 -0.026578125 0.0
242 1 -0.026578125 -0.00125 -0.025396875 0.0
243 1 -0.026578125 -0.00125 -0.024215625 0.0
244 1 -0.026578125 -0.00125 -0.023034375 0.0
245 1 -0.026578125 -0.00125 -0.021853125 0.0
246 1 -0.026578125 -0.00125 -0.020671875 4.65297157622e-183
247 1 -0.026578125 -0.00125 -0.019490625 4.8776396711e-39
248 1 -0.026578125 -0.00125 -0.018309375 5.27749800258e-32
249 1 -0.026578125 -0.00125 -0.017128125 1.60341299223e-25
250 1 -0.026578125 -0.00125 -0.015946875 2.66064822652e-15
251 1 -0.026578125 -0.00125 -0.014765625 3.6894433444e-17
252 1 -0.026578125 -0.00125 -0.013584375 3.95256647714e-14
253 1 -0.026578125 -0.00125 -0.012403125 9.42385631379e-16
254 1 -0.026578125 -0.00125 -0.011221875 1.61247115352e-12
255 1 -0.026578125 -0.00125 -0.010040625 9.8162849199e-20
256 1 -0.026578125 -0.00125 -0.008859375 3.65902028482e-15
257 1 -0.026578125 -0.00125 -0.007678125 4.81481314065e-09
258 1 -0.026578125 -0.00125 -0.006496875 9.75307350895e-11
259 1 -0.026578125 -0.00125 -0.005315625 1.29441495402e-07
260 1 -0.026578125 -0.00125 -0.004134375 5.6961773122e-07
261 1 -0.026578125 -0.00125 -0.002953125 5.82820097597e-09
262 1 -0.026578125 -0.00125 -0.001771875 2.99029493832e-07
263 1 -0.026578125 -0.00125 -0.000590625 7.62735704958e-06
264 1 -0.026578125 -0.00125 0.000590625 6.32076085575e-06
265 1 -0.026578125 -0.00125 0.001771875 0.000139177502013
266 1 -0.026578125 -0.00125 0.002953125 4.28182041593e-05
267 1 -0.026578125 -0.00125 0.004134375 4.1012336633e-06
268 1 -0.026578125 -0.00125 0.005315625 0.000494189312078
269 1 -0.026578125 -0.00125 0.006496875 3.53372248546e-05
270 1 -0.026578125 -0.00125 0.007678125 0.000447080782551
271 1 -0.026578125 -0.00125 0.008859375 4.98200693049e-07
272 1 -0.026578125 -0.00125 0.010040625 8.28574705921e-07
273 1 -0.026578125 -0.00125 0.011221875 9.57586549917e-12
274 1 -0.026578125 -0.00125 0.012403125 5.55787718047e-16
275 1 -0.026578125 -0.00125 0.013584375 2.0833411771e-26
276 1 -0.026578125 -0.00125 0.014765625 1.79208728568e-35
277 1 -0.026578125 -0.00125 0.015946875 1.12869224889e-41
278 1 -0.026578125 -0.00125 0.017128125 1.87870842708e-29
279 1 -0.026578125 -0.00125 0.018309375 1.63687231795e-14
280 1 -0.026578125 -0.00125 0.019490625 1.60846310497e-09
281 1 -0.026578125 -0.00125 0.020671875 2.13241389662e-07
282 1 -0.026578125 -0.00125 0.021853125 6.0430716908e-06
283 1 -0.026578125 -0.00125 0.023034375 2.60813794351e-07
284 1 -0.026578125 -0.00125 0.024215625 4.64829597714e-13
285 1 -0.026578125 -0.00125 0.025396875 1.48500000928e-30
286 1 -0.026578125 -0.00125 0.026578125 1.33926486074e-20
287 1 -0.025396875 -0.00125 -0.026578125 0.0
288 1 -0.025396875 -0.00125 -0.025396875 0.0
289 1 -0.025396875 -0.00125 -0.024215625 0.0
290 1 -0.025396875 -0.00125 -0.023034375 0.0
291 1 -0.025396875 -0.00125 -0.021853125 0.0
292 1 -0.025396875 -0.00125 -0.020671875 1.08406686988e-67
293 1 -0.025396875 -0.00125 -0.019490625 2.52522418986e-23
294 1 -0.025396875 -0.00125 -0.018309375 1.96006324766e-15
295 1 -0.025396875 -0.00125 -0.017128125 4.22175392786e-08
296 1 -0.025396875 -0.00125 -0.015946875 2.78963659202e-10
297 1 -0.025396875 -0.00125 -0.014765625 1.43598313596e-05
298 1 -0.025396875 -0.00125 -0.013584375 1.03331599232e-09
299 1 -0.025396875 -0.00125 -0.012403125 8.94285150992e-10
300 1 -0.025396875 -0.00125 -0.011221875 6.27028876705e-10
301 1 -0.025396875 -0.00125 -0.010040625 6.59515258821e-09
302 1 -0.025396875 -0.00125 -0.008859375 5.77217694852e-10
303 1 -0.025396875 -0.00125 -0.007678125 1.41527643252e-09
304 1 -0.025396875 -0.00125 -0.006496875 3.63950352192e-13
305 1 -0.025396875 -0.00125 -0.005315625 7.74669437163e-10
306 1 -0.025396875 -0.00125 -0.004134375 7.07057384469e-10
307 1 -0.025396875 -0.00125 -0.002953125 2.45115209192e-08
308 1 -0.025396875 -0.00125 -0.001771875 4.13537664279e-09
309 1 -0.025396875 -0.00125 -0.000590625 3.96401315408e-07
310 1 -0.025396875 -0.00125 0.000590625 1.86237695145e-06
311 1 -0.025396875 -0.00125 0.001771875 3.00258411957e-06
312 1 -0.025396875 -0.00125 0.002953125 2.46761784254e-11
313 1 -0.025396875 -0.00125 0.004134375 1.29983927148e-05
314 1 -0.025396875 -0.00125 0.005315625 1.16814517195e-05
315 1 -0.025396875 -0.00125 0.006496875 0.000378536745964
316 1 -0.025396875 -0.00125 0.007678125 0.00602981689376
317 1 -0.025396875 -0.00125 0.008859375 0.000861547354956
318 1 -0.025396875 -0.00125 0.010040625 0.0036028700911
319 1 -0.025396875 -0.00125 0.011221875 6.46769526367e-06
320 1 -0.025396875 -0.00125 0.012403125 3.43856266162e-07
321 1 -0.025396875 -0.00125 0.013584375 1.47181936753e-13
322 1 -0.025396875 -0.00125 0.014765625 2.78565825478e-49
323 1 -0.025396875 -0.00125 0.015946875 1.25000894656e-33
324 1 -0.025396875 -0.00125 0.017128125 2.44001501618e-30
325 1 -0.025396875 -0.00125 0.018309375 4.28156779074e-15
326 1 -0.025396875 -0.00125 0.019490625 7.95071068378e-13
327 1 -0.025396875 -0.00125 0.020671875 1.13294422808e-07
328 1 -0.025396875 -0.00125 0.021853125 1.01286958801e-06
329 1 -0.025396875 -0.00125 0.023034375 5.78452429994e-09
330 1 -0.025396875 -0.00125 0.024215625 1.0054355943e-10
331 1 -0.025396875 -0.00125 0.025396875 1.34709235067e-26
332 1 -0.025396875 -0.00125 0.026578125 2.00243511908e-56
333 1 -0.024215625 -0.00125 -0.027759375 0.0
334 1 -0.024215625 -0.00125 -0.026578125 0.0
335 1 -0.024215625 -0.00125 -0.025396875 0.0
336 1 -0.024215625 -0.00125 -0.024215625 0.0
337 1 -0.024215625 -0.00125 -0.023034375 0.0
338 1 -0.024215625 -0.00125 -0.021853125 8.0442582728e-137
339 1 -0.024215625 -0.00125 -0.020671875 8.60399921892e-49
340 1 -0.024215625 -0.00125 -0.019490625 5.16985295034e-12
341 1 -0.024215625 -0.00125 -0.018309375 1.55315879795e-11
342 1 -0.024215625 -0.00125 -0.017128125 2.53991958814e-09
343 1 -0.024215625 -0.00125 -0.015946875 8.59015062939e-07
344 1 -0.024215625 -0.00125 -0.014765625 8.42530035198e-06
345 1 -0.024215625 -0.00125 -0.013584375 9.08167504052e-08
346 1 -0.024215625 -0.00125 -0.012403125 5.8766092913e-10
347 1 -0.024215625 -0.00125 -0.011221875 1.3492302626e-10
348 1 -0.024215625 -0.00125 -0.010040625 4.25731643611e-08
349 1 -0.024215625 -0.00125 -0.008859375 3.8083633848e-06
350 1 -0.024215625 -0.00125 -0.007678125 4.14421321036e-08
351 1 -0.024215625 -0.00125 -0.006496875 7.95793101564e-08
352 1 -0.024215625 -0.00125 -0.005315625 1.02740247524e-05
353 1 -0.024215625 -0.00125 -0.004134375 6.87778264144e-06
354 1 -0.024215625 -0.00125 -0.002953125 1.77374435105e-07
355 1 -0.024215625 -0.00125 -0.001771875 6.69468927773e-07
356 1 -0.024215625 -0.00125 -0.000590625 7.31904899571e-06
357 1 -0.024215625 -0.00125 0.000590625 0.000531196561326
358 1 -0.024215625 -0.00125 0.001771875 5.08811520848e-05
359 1 -0.024215625 -0.00125 0.002953125 6.20797570481e-06
360 1 -0.024215625 -0.00125 0.004134375 1.07660470098e-05
361 1 -0.024215625 -0.00125 0.005315625 3.17988175512e-05
362 1 -0.024215625 -0.00125 0.006496875 3.06096829351e-05
363 1 -0.024215625 -0.00125 0.007678125 0.000720207961961
364 1 -0.024215625 -0.00125 0.008859375 0.00258400228674
365 1 -0.024215625 -0.00125 0.010040625 0.00592277687292
366 1 -0.024215625 -0.00125 0.011221875 0.000469314320181
367 1 -0.024215625 -0.00125 0.012403125 3.92409673434e-05
368 1 -0.024215625 -0.00125 0.013584375 1.83810799045e-08
369 1 -0.024215625 -0.00125 0.014765625 1.18804542155e-12
370 1 -0.024215625 -0.00125 0.015946875 1.44993761054e-25
371 1 -0.024215625 -0.00125 0.017128125 2.38940738015e-19
372 1 -0.024215625 -0.00125 0.018309375 3.19718368841e-12
373 1 -0.024215625 -0.00125 0.019490625 4.73876773702e-12
374 1 -0.024215625 -0.00125 0.020671875 2.94710350528e-09
375 1 -0.024215625 -0.00125 0.021853125 4.07224137149e-07
376 1 -0.024215625 -0.00125 0.023034375 9.20685566212e-09
377 1 -0.024215625 -0.00125 0.024215625 1.02913593206e-20
378 1 -0.024215625 -0.00125 0.025396875 1.46416720065e-23
379 1 -0.024215625 -0.00125 0.026578125 2.44049221009e-17
380 1 -0.024215625 -0.00125 0.027759375 1.0344409123e-19
381 1 -0.023034375 -0.00125 -0.027759375 0.0
382 1 -0.023034375 -0.00125 -0.026578125 0.0
383 1 -0.023034375 -0.00125 -0.025396875 0.0
384 1 -0.023034375 -0.00125 -0.024215625 2.43139472e-151
385 1 -0.023034375 -0.00125 -0.023034375 3.23761580515e-116
386 1 -0.023034375 -0.00125 -0.021853125 2.25033055921e-32
387 1 -0.023034375 -0.00125 -0.020671875 7.03700245404e-21
388 1 -0.023034375 -0.00125 -0.019490625 5.98315163539e-07
389 1 -0.023034375 -0.00125 -0.018309375 6.13007947606e-08
390 1 -0.023034375 -0.00125 -0.017128125 6.21275420021e-06
391 1 -0.023034375 -0.00125 -0.015946875 0.000133290098235
392 1 -0.023034375 -0.00125 -0.014765625 9.68368020134e-05
393 1 -0.023034375 -0.00125 -0.013584375 2.54014851458e-07
394 1 -0.023034375 -0.00125 -0.012403125 1.05156791903e-06
395 1 -0.023034375 -0.00125 -0.011221875 3.64214859109e-10
396 1 -0.023034375 -0.00125 -0.010040625 2.19879665911e-09
397 1 -0.023034375 -0.00125 -0.008859375 1.37543536204e-07
398 1 -0.023034375 -0.00125 -0.007678125 3.31587560707e-07
399 1 -0.023034375 -0.00125 -0.006496875 1.70431516307e-07
400 1 -0.023034375 -0.00125 -0.005315625 7.55754666088e-07
401 1 -0.023034375 -0.00125 -0.004134375 8.78359927879e-09
402 1 -0.023034375 -0.00125 -0.002953125 3.76276941657e-07
403 1 -0.023034375 -0.00125 -0.001771875 4.3923387679e-05
404 1 -0.023034375 -0.00125 -0.000590625 0.000706252398925
405 1 -0.023034375 -0.00125 0.000590625 0.00293487925029
406 1 -0.023034375 -0.00125 0.001771875 0.00699977539194
407 1 -0.023034375 -0.00125 0.002953125 0.000424220540902
408 1 -0.023034375 -0.00125 0.004134375 7.1094641762e-05
409 1 -0.023034375 -0.00125 0.005315625 2.88649273853e-07
410 1 -0.023034375 -0.00125 0.006496875 0.00350426591192
411 1 -0.023034375 -0.00125 0.007678125 0.00706147749583
412 1 -0.023034375 -0.00125 0.008859375 0.00355673877563
413 1 -0.023034375 -0.00125 0.010040625 0.0012683661598
414 1 -0.023034375 -0.00125 0.011221875 0.000353611147819
415 1 -0.023034375 -0.00125 0.012403125 0.000373721558499
416 1 -0.023034375 -0.00125 0.013584375 1.19104965842e-05
417 1 -0.023034375 -0.00125 0.014765625 1.47718848568e-10
418 1 -0.023034375 -0.00125 0.015946875 2.84547101939e-10
419 1 -0.023034375 -0.00125 0.017128125 3.28849606873e-18
420 1 -0.023034375 -0.00125 0.018309375 1.38385803508e-11
421 1 -0.023034375 -0.00125 0.019490625 3.06689483396e-12
422 1 -0.023034375 -0.00125 0.020671875 9.08919543199e-08
423 1 -0.023034375 -0.00125 0.021853125 1.33029348428e-09
424 1 -0.023034375 -0.00125 0.023034375 2.16352519997e-07
425 1 -0.023034375 -0.00125 0.024215625 5.59495044875e-14
426 1 -0.023034375 -0.00125 0.025396875 3.66867281939e-15
427 1 -0.023034375 -0.00125 0.026578125 1.76428366059e-13
428 1 -0.023034375 -0.00125 0.027759375 3.15837070528e-07
429 1 -0.021853125 -0.00125 -0.028940625 2.38783393215e-300
430 1 -0.021853125 -0.00125 -0.027759375 5.72305436346e-198
431 1 -0.021853125 -0.00125 -0.026578125 0.0
432 1 -0.021853125 -0.00125 -0.025396875 1.23003155377e-233
433 1 -0.021853125 -0.00125 -0.024215625 8.33643924246e-85
434 1 -0.021853125 -0.00125 -0.023034375 2.51160731691e-64
435 1 -0.021853125 -0.00125 -0.021853125 1.03565030577e-27
436 1 -0.021853125 -0.00125 -0.020671875 3.93869458999e-10
437 1 -0.021853125 -0.00125 -0.019490625 3.03262805725e-05
438 1 -0.021853125 -0.00125 -0.018309375 7.07214747572e-06
439 1 -0.021853125 -0.00125 -0.017128125 0.000102901000134
440 1 -0.021853125 -0.00125 -0.015946875 0.00138371316898
441 1 -0.021853125 -0.00125 -0.014765625 0.00131185796931
442 1 -0.021853125 -0.00125 -0.013584375 0.000489792147837
443 1 -0.021853125 -0.00125 -0.012403125 5.98034310764e-05
444 1 -0.021853125 -0.00125 -0.011221875 1.05054802187e-06
445 1 -0.021853125 -0.00125 -0.010040625 2.76378804289e-07
446 1 -0.021853125 -0.00125 -0.008859375 3.60720956188e-07
447 1 -0.021853125 -0.00125 -0.007678125 8.57058794747e-06
448 1 -0.021853125 -0.00125 -0.006496875 1.74527721383e-06
449 1 -0.021853125 -0.00125 -0.005315625 5.55263673604e-05
450 1 -0.021853125 -0.00125 -0.004134375 2.03790999566e-05
451 1 -0.021853125 -0.00125 -0.002953125 4.90847588743e-06
452 1 -0.021853125 -0.00125 -0.001771875 8.26653426446e-05
453 1 -0.021853125 -0.00125 -0.000590625 0.00658825427974
454 1 -0.021853125 -0.00125 0.000590625 0.00594171371705
455 1 -0.021853125 -0.00125 0.001771875 0.0040384149421
456 1 -0.021853125 -0.00125 0.002953125 0.00485473630489
457 1 -0.021853125 -0.00125 0.004134375 0.00389863707323
458 1 -0.021853125 -0.00125 0.005315625 0.00665219709133
459 1 -0.021853125 -0.00125 0.006496875 0.0113455141465
460 1 -0.021853125 -0.00125 0.007678125 0.00177121838592
461 1 -0.021853125 -0.00125 0.008859375 0.00540474345687
462 1 -0.021853125 -0.00125 0.010040625 0.00258020501123
463 1 -0.021853125 -0.00125 0.011221875 0.00130405779636
464 1 -0.021853125 -0.00125 0.012403125 0.000962379190615
465 1 -0.021853125 -0.00125 0.013584375 0.000111247614506
466 1 -0.021853125 -0.00125 0.014765625 1.51361671763e-05
467 1 -0.021853125 -0.00125 0.015946875 4.70750058408e-06
468 1 -0.021853125 -0.00125 0.017128125 1.09574567046e-07
469 1 -0.021853125 -0.00125 0.018309375 7.23315577075e-09
470 1 -0.021853125 -0.00125 0.019490625 2.98433538315e-09
471 1 -0.021853125 -0.00125 0.020671875 4.40800821714e-06
472 1 -0.021853125 -0.00125 0.021853125 4.96804080305e-07
473 1 -0.021853125 -0.00125 0.023034375 7.07365009609e-08
474 1 -0.021853125 -0.00125 0.024215625 3.65340570425e-08
475 1 -0.021853125 -0.00125 0.025396875 2.89155063261e-11
476 1 -0.021853125 -0.00125 0.026578125 6.82368142241e-09
477 1 -0.021853125 -0.00125 0.027759375 3.12549851316e-06
478 1 -0.021853125 -0.00125 0.028940625 8.66619610391e-07
479 1 -0.020671875 -0.00125 -0.030121875 0.0
480 1 -0.020671875 -0.00125 -0.028940625 6.14229963763e-301
481 1 -0.020671875 -0.00125 -0.027759375 6.9416687256e-269
482 1 -0.020671875 -0.00125 -0.026578125 1.77264188342e-204
483 1 -0.020671875 -0.00125 -0.025396875 3.05862601514e-111
484 1 -0.020671875 -0.00125 -0.024215625 2.27269041082e-49
485 1 -0.020671875 -0.00125 -0.023034375 1.70701222738e-28
486 1 -0.020671875 -0.00125 -0.021853125 9.218800344e-11
487 1 -0.020671875 -0.00125 -0.020671875 2.13940703934e-09
488 1 -0.020671875 -0.00125 -0.019490625 6.37393493892e-05
489 1 -0.020671875 -0.00125 -0.018309375 0.000929807005868
490 1 -0.020671875 -0.00125 -0.017128125 0.00321507083505
491 1 -0.020671875 -0.00125 -0.015946875 0.00429678132928
492 1 -0.020671875 -0.00125 -0.014765625 0.0122560640635
493 1 -0.020671875 -0.00125 -0.013584375 0.000117498046699
494 1 -0.020671875 -0.00125 -0.012403125 0.000175525415764
495 1 -0.020671875 -0.00125 -0.011221875 4.86505924156e-07
496 1 -0.020671875 -0.00125 -0.010040625 0.000175961901636
497 1 -0.020671875 -0.00125 -0.008859375 6.7243782221e-06
498 1 -0.020671875 -0.00125 -0.007678125 2.19073979762e-06
499 1 -0.020671875 -0.00125 -0.006496875 1.24500416152e-06
500 1 -0.020671875 -0.00125 -0.005315625 7.32646267526e-06
501 1 -0.020671875 -0.00125 -0.004134375 0.000881257021248
502 1 -0.020671875 -0.00125 -0.002953125 2.29245889812e-06
503 1 -0.020671875 -0.00125 -0.001771875 0.000695687246377
504 1 -0.020671875 -0.00125 -0.000590625 0.00338956645318
505 1 -0.020671875 -0.00125 0.000590625 0.0100037985589
506 1 -0.020671875 -0.00125 0.001771875 0.00217552455332
507 1 -0.020671875 -0.00125 0.002953125 0.000785555718169
508 1 -0.020671875 -0.00125 0.004134375 0.00278753009604
509 1 -0.020671875 -0.00125 0.005315625 0.0156607892594
510 1 -0.020671875 -0.00125 0.006496875 0.0045737559018
511 1 -0.020671875 -0.00125 0.007678125 0.00192443566802
512 1 -0.020671875 -0.00125 0.008859375 0.00111438956821
513 1 -0.020671875 -0.00125 0.010040625 0.00279167573281
514 1 -0.020671875 -0.00125 0.011221875 0.00212025787123
515 1 -0.020671875 -0.00125 0.012403125 0.00387925469575
516 1 -0.020671875 -0.00125 0.013584375 0.00141317768215
517 1 -0.020671875 -0.00125 0.014765625 0.00013459026167
518 1 -0.020671875 -0.00125 0.015946875 0.00207555439253
519 1 -0.020671875 -0.00125 0.017128125 0.000202335697403