ITEM: TIMESTEP
0
ITEM: NUMBER OF ATOMS
3080
ITEM: BOX BOUNDS ss ss ss
-3.7007399999999996e-02 3.7007399999999996e-02
-2.0002499999999999e-03 2.5000000000000004e-07
-3.7007399999999996e-02 3.7007399999999996e-02
ITEM: ATOMS id type x y z c_1
0 1 -0.037209375 -0.00125 -0.000590625 0.997256577678
1 1 -0.036028125 -0.00125 -0.007678125 0.00772878297345
2 1 -0.036028125 -0.00125 -0.006496875 0.000143848853889
3 1 -0.036028125 -0.00125 -0.005315625 0.00097169807234
4 1 -0.036028125 -0.00125 -0.004134375 0.0212453271026
5 1 -0.036028125 -0.00125 -0.002953125 0.127239473581
6 1 -0.036028125 -0.00125 -0.001771875 0.155984211069
7 1 -0.036028125 -0.00125 -0.000590625 0.0533495329446
8 1 -0.036028125 -0.00125 0.000590625 2.07176800524e-05
9 1 -0.036028125 -0.00125 0.001771875 6.8311023712e-06
10 1 -0.036028125 -0.00125 0.002953125 2.76545197112e-09
11 1 -0.036028125 -0.00125 0.004134375 4.57696346087e-06
12 1 -0.036028125 -0.00125 0.005315625 0.000120316382814
13 1 -0.036028125 -0.00125 0.006496875 0.000199410717554
14 1 -0.036028125 -0.00125 0.007678125 0.00126349640451
15 1 -0.034846875 -0.00125 -0.011221875 0.0331001176551
16 1 -0.034846875 -0.00125 -0.010040625 0.031029731665
17 1 -0.034846875 -0.00125 -0.008859375 0.115216667637
18 1 -0.034846875 -0.00125 -0.007678125 0.000926840671321
19 1 -0.034846875 -0.00125 -0.006496875 0.000249827573003
20 1 -0.034846875 -0.00125 -0.005315625 0.00345981428198
21 1 -0.034846875 -0.00125 -0.004134375 0.012700973399
22 1 -0.034846875 -0.00125 -0.002953125 0.129777709179
23 1 -0.034846875 -0.00125 -0.001771875 0.0742094462381
24 1 -0.034846875 -0.00125 -0.000590625 0.0277974356909
25 1 -0.034846875 -0.00125 0.000590625 8.25333544467e-05
26 1 -0.034846875 -0.00125 0.001771875 7.38921613183e-07
27 1 -0.034846875 -0.00125 0.002953125 1.42670243242e-10
28 1 -0.034846875 -0.00125 0.004134375 5.186249172e-07
29 1 -0.034846875 -0.00125 0.005315625 0.00267221599827
30 1 -0.034846875 -0.00125 0.006496875 0.00118741097077
31 1 -0.034846875 -0.00125 0.007678125 0.0083013181392
32 1 -0.034846875 -0.00125 0.008859375 0.0307842828379
33 1 -0.034846875 -0.00125 0.010040625 0.00669056064542
34 1 -0.034846875 -0.00125 0.011221875 7.39515381477e-05
35 1 -0.033665625 -0.00125 -0.013584375 0.0267699315569
36 1 -0.033665625 -0.00125 -0.012403125 0.106054154575
37 1 -0.033665625 -0.00125 -0.011221875 0.0456863986361
38 1 -0.033665625 -0.00125 -0.010040625 0.0598718919156
39 1 -0.033665625 -0.00125 -0.008859375 0.0710868207212
40 1 -0.033665625 -0.00125 -0.007678125 0.0133907774823
41 1 -0.033665625 -0.00125 -0.006496875 0.00806094024171
42 1 -0.033665625 -0.00125 -0.005315625 0.00323443177275
43 1 -0.033665625 -0.00125 -0.004134375 0.0673008253985
44 1 -0.033665625 -0.00125 -0.002953125 0.0892501304822
45 1 -0.033665625 -0.00125 -0.001771875 0.116114884725
46 1 -0.033665625 -0.00125 -0.000590625 0.11895358752
47 1 -0.033665625 -0.00125 0.000590625 0.00458354947452
48 1 -0.033665625 -0.00125 0.001771875 0.000130354023814
49 1 -0.033665625 -0.00125 0.002953125 0.000103945832102
50 1 -0.033665625 -0.00125 0.004134375 5.23843624469e-05
51 1 -0.033665625 -0.00125 0.005315625 0.000267976711477
52 1 -0.033665625 -0.00125 0.006496875 0.00504465176052
53 1 -0.033665625 -0.00125 0.007678125 0.0151834466526
54 1 -0.033665625 -0.00125 0.008859375 0.0249224967679
55 1 -0.033665625 -0.00125 0.010040625 0.00661411709972
56 1 -0.033665625 -0.00125 0.011221875 0.00332316062158
57 1 -0.033665625 -0.00125 0.012403125 0.00386074811869
58 1 -0.033665625 -0.00125 0.013584375 1.13101759268e-05
59 1 -0.032484375 -0.00125 -0.018309375 0.0594973087585
60 1 -0.032484375 -0.00125 -0.017128125 0.156037497399
61 1 -0.032484375 -0.00125 -0.015946875 0.157975398573
62 1 -0.032484375 -0.00125 -0.014765625 0.220051978282
63 1 -0.032484375 -0.00125 -0.013584375 0.116115391887
64 1 -0.032484375 -0.00125 -0.012403125 0.216943539922
65 1 -0.032484375 -0.00125 -0.011221875 0.206134806052
66 1 -0.032484375 -0.00125 -0.010040625 0.217642002868
67 1 -0.032484375 -0.00125 -0.008859375 0.309910673913
68 1 -0.032484375 -0.00125 -0.007678125 0.171943631186
69 1 -0.032484375 -0.00125 -0.006496875 0.0658234545621
70 1 -0.032484375 -0.00125 -0.005315625 0.184051658331
71 1 -0.032484375 -0.00125 -0.004134375 0.267917886462
72 1 -0.032484375 -0.00125 -0.002953125 0.203694202855
73 1 -0.032484375 -0.00125 -0.001771875 0.338281744231
74 1 -0.032484375 -0.00125 -0.000590625 0.326782410685
75 1 -0.032484375 -0.00125 0.000590625 0.136967546959
76 1 -0.032484375 -0.00125 0.001771875 0.0962335445833
77 1 -0.032484375 -0.00125 0.002953125 0.104747980131
78 1 -0.032484375 -0.00125 0.004134375 0.294744894035
79 1 -0.032484375 -0.00125 0.005315625 0.0711434153012
80 1 -0.032484375 -0.00125 0.006496875 0.110464408465
81 1 -0.032484375 -0.00125 0.007678125 0.133469420669
82 1 -0.032484375 -0.00125 0.008859375 0.0475948007144
83 1 -0.032484375 -0.00125 0.010040625 0.0171638044036
84 1 -0.032484375 -0.00125 0.011221875 0.0131516640405
85 1 -0.032484375 -0.00125 0.012403125 0.0013739191586
86 1 -0.032484375 -0.00125 0.013584375 1.66273697945e-05
87 1 -0.032484375 -0.00125 0.014765625 4.6191721751e-05
88 1 -0.032484375 -0.00125 0.015946875 3.36315227579e-08
89 1 -0.032484375 -0.00125 0.017128125 1.02441922868e-08
90 1 -0.032484375 -0.00125 0.018309375 9.48239591409e-10
91 1 -0.031303125 -0.00125 -0.019490625 0.0499569790178
92 1 -0.031303125 -0.00125 -0.018309375 0.188762105649
93 1 -0.031303125 -0.00125 -0.017128125 0.237029932816
94 1 -0.031303125 -0.00125 -0.015946875 0.350811509296
95 1 -0.031303125 -0.00125 -0.014765625 0.397204579709
96 1 -0.031303125 -0.00125 -0.013584375 0.337563610294
97 1 -0.031303125 -0.00125 -0.012403125 0.375121021814
98 1 -0.031303125 -0.00125 -0.011221875 0.292486272499
99 1 -0.031303125 -0.00125 -0.010040625 0.261729879747
100 1 -0.031303125 -0.00125 -0.008859375 0.419148867912
101 1 -0.031303125 -0.00125 -0.007678125 0.435766101947
102 1 -0.031303125 -0.00125 -0.006496875 0.284370927243
103 1 -0.031303125 -0.00125 -0.005315625 0.343228968408
104 1 -0.031303125 -0.00125 -0.004134375 0.300357943439
105 1 -0.031303125 -0.00125 -0.002953125 0.423659389562
106 1 -0.031303125 -0.00125 -0.001771875 0.310842380967
107 1 -0.031303125 -0.00125 -0.000590625 0.27568645766
108 1 -0.031303125 -0.00125 0.000590625 0.212031950355
109 1 -0.031303125 -0.00125 0.001771875 0.168156175872
110 1 -0.031303125 -0.00125 0.002953125 0.333352901333
111 1 -0.031303125 -0.00125 0.004134375 0.340176272531
112 1 -0.031303125 -0.00125 0.005315625 0.309672135914
113 1 -0.031303125 -0.00125 0.006496875 0.257596239917
114 1 -0.031303125 -0.00125 0.007678125 0.169937788043
115 1 -0.031303125 -0.00125 0.008859375 0.0387620271304
116 1 -0.031303125 -0.00125 0.010040625 0.022451092143
117 1 -0.031303125 -0.00125 0.011221875 0.00900926890301
118 1 -0.031303125 -0.00125 0.012403125 0.00397355994753
119 1 -0.031303125 -0.00125 0.013584375 0.000564005212008
120 1 -0.031303125 -0.00125 0.014765625 1.94616138741e-05
121 1 -0.031303125 -0.00125 0.015946875 2.80358769287e-07
122 1 -0.031303125 -0.00125 0.017128125 2.09384333606e-09
123 1 -0.031303125 -0.00125 0.018309375 3.83020702235e-09
124 1 -0.031303125 -0.00125 0.019490625 1.70316041149e-10
125 1 -0.030121875 -0.00125 -0.020671875 0.0508028409944
126 1 -0.030121875 -0.00125 -0.019490625 0.180673595198
127 1 -0.030121875 -0.00125 -0.018309375 0.406260699845
128 1 -0.030121875 -0.00125 -0.017128125 0.485137689356
129 1 -0.030121875 -0.00125 -0.015946875 0.555901704839
130 1 -0.030121875 -0.00125 -0.014765625 0.460676441215
131 1 -0.030121875 -0.00125 -0.013584375 0.45226517803
132 1 -0.030121875 -0.00125 -0.012403125 0.53762495527
133 1 -0.030121875 -0.00125 -0.011221875 0.395476988644
134 1 -0.030121875 -0.00125 -0.010040625 0.324198886655
135 1 -0.030121875 -0.00125 -0.008859375 0.360790895747
136 1 -0.030121875 -0.00125 -0.007678125 0.375932630348
137 1 -0.030121875 -0.00125 -0.006496875 0.324237019421
138 1 -0.030121875 -0.00125 -0.005315625 0.438857213389
139 1 -0.030121875 -0.00125 -0.004134375 0.460912237223
140 1 -0.030121875 -0.00125 -0.002953125 0.469655361443
141 1 -0.030121875 -0.00125 -0.001771875 0.369712383395
142 1 -0.030121875 -0.00125 -0.000590625 0.348439371659
143 1 -0.030121875 -0.00125 0.000590625 0.292045988848
144 1 -0.030121875 -0.00125 0.001771875 0.323405776734
145 1 -0.030121875 -0.00125 0.002953125 0.32951341255
146 1 -0.030121875 -0.00125 0.004134375 0.396623280936
147 1 -0.030121875 -0.00125 0.005315625 0.321081905376
148 1 -0.030121875 -0.00125 0.006496875 0.187356911898
149 1 -0.030121875 -0.00125 0.007678125 0.0563657925082
150 1 -0.030121875 -0.00125 0.008859375 0.041048250648
151 1 -0.030121875 -0.00125 0.010040625 0.0434606694093
152 1 -0.030121875 -0.00125 0.011221875 0.0220634426816
153 1 -0.030121875 -0.00125 0.012403125 0.0176191815922
154 1 -0.030121875 -0.00125 0.013584375 0.00196678495911
155 1 -0.030121875 -0.00125 0.014765625 0.00143723550967
156 1 -0.030121875 -0.00125 0.015946875 1.74042407703e-07
157 1 -0.030121875 -0.00125 0.017128125 8.16809847055e-08
158 1 -0.030121875 -0.00125 0.018309375 2.78597479719e-08
159 1 -0.030121875 -0.00125 0.019490625 5.49928882203e-11
160 1 -0.030121875 -0.00125 0.020671875 1.79512376114e-18
161 1 -0.028940625 -0.00125 -0.021853125 0.363052853845
162 1 -0.028940625 -0.00125 -0.020671875 0.283924504738
163 1 -0.028940625 -0.00125 -0.019490625 0.254439994257
164 1 -0.028940625 -0.00125 -0.018309375 0.496497750712
165 1 -0.028940625 -0.00125 -0.017128125 0.61943951222
166 1 -0.028940625 -0.00125 -0.015946875 0.59050580592
167 1 -0.028940625 -0.00125 -0.014765625 0.497632319754
168 1 -0.028940625 -0.00125 -0.013584375 0.480813586395
169 1 -0.028940625 -0.00125 -0.012403125 0.526250588706
170 1 -0.028940625 -0.00125 -0.011221875 0.476060021118
171 1 -0.028940625 -0.00125 -0.010040625 0.406542399101
172 1 -0.028940625 -0.00125 -0.008859375 0.480016542438
173 1 -0.028940625 -0.00125 -0.007678125 0.43897568919
174 1 -0.028940625 -0.00125 -0.006496875 0.474775464519
175 1 -0.028940625 -0.00125 -0.005315625 0.414653369141
176 1 -0.028940625 -0.00125 -0.004134375 0.616756223118
177 1 -0.028940625 -0.00125 -0.002953125 0.655199528906
178 1 -0.028940625 -0.00125 -0.001771875 0.632176906495
179 1 -0.028940625 -0.00125 -0.000590625 0.440891486345
180 1 -0.028940625 -0.00125 0.000590625 0.437496127625
181 1 -0.028940625 -0.00125 0.001771875 0.380814963274
182 1 -0.028940625 -0.00125 0.002953125 0.399958990684
183 1 -0.028940625 -0.00125 0.004134375 0.241200049291
184 1 -0.028940625 -0.00125 0.005315625 0.280277710637
185 1 -0.028940625 -0.00125 0.006496875 0.142198549979
186 1 -0.028940625 -0.00125 0.007678125 0.0423635386044
187 1 -0.028940625 -0.00125 0.008859375 0.081559834198
188 1 -0.028940625 -0.00125 0.010040625 0.0781397191019
189 1 -0.028940625 -0.00125 0.011221875 0.0430443014112
190 1 -0.028940625 -0.00125 0.012403125 0.0211270080236
191 1 -0.028940625 -0.00125 0.013584375 0.0147870398358
192 1 -0.028940625 -0.00125 0.014765625 0.000445156661702
193 1 -0.028940625 -0.00125 0.015946875 3.83989282552e-05
194 1 -0.028940625 -0.00125 0.017128125 6.41402347635e-06
195 1 -0.028940625 -0.00125 0.018309375 1.16116342542e-06
196 1 -0.028940625 -0.00125 0.019490625 1.22318664293e-13
197 1 -0.028940625 -0.00125 0.020671875 3.82035426391e-16
198 1 -0.028940625 -0.00125 0.021853125 1.99742376472e-09
199 1 -0.027759375 -0.00125 -0.024215625 0.127865122756
200 1 -0.027759375 -0.00125 -0.023034375 0.269274509395
201 1 -0.027759375 -0.00125 -0.021853125 0.437431109185
202 1 -0.027759375 -0.00125 -0.020671875 0.373378779116
203 1 -0.027759375 -0.00125 -0.019490625 0.337548268897
204 1 -0.027759375 -0.00125 -0.018309375 0.456089085081
205 1 -0.027759375 -0.00125 -0.017128125 0.571715683758
206 1 -0.027759375 -0.00125 -0.015946875 0.618869206897
207 1 -0.027759375 -0.00125 -0.014765625 0.600701228433
208 1 -0.027759375 -0.00125 -0.013584375 0.670944649671
209 1 -0.027759375 -0.00125 -0.012403125 0.558860325251
210 1 -0.027759375 -0.00125 -0.011221875 0.481335227515
211 1 -0.027759375 -0.00125 -0.010040625 0.446206058768
212 1 -0.027759375 -0.00125 -0.008859375 0.536765657691
213 1 -0.027759375 -0.00125 -0.007678125 0.509185065679
214 1 -0.027759375 -0.00125 -0.006496875 0.434884548512
215 1 -0.027759375 -0.00125 -0.005315625 0.493086927968
216 1 -0.027759375 -0.00125 -0.004134375 0.601848061491
217 1 -0.027759375 -0.00125 -0.002953125 0.653198509324
218 1 -0.027759375 -0.00125 -0.001771875 0.59000601873
219 1 -0.027759375 -0.00125 -0.000590625 0.506917519303
220 1 -0.027759375 -0.00125 0.000590625 0.515461428094
221 1 -0.027759375 -0.00125 0.001771875 0.482327296055
222 1 -0.027759375 -0.00125 0.002953125 0.318574616086
223 1 -0.027759375 -0.00125 0.004134375 0.257926362273
224 1 -0.027759375 -0.00125 0.005315625 0.164350883363
225 1 -0.027759375 -0.00125 0.006496875 0.166598527881
226 1 -0.027759375 -0.00125 0.007678125 0.117710310961
227 1 -0.027759375 -0.00125 0.008859375 0.0707321570804
228 1 -0.027759375 -0.00125 0.010040625 0.164758841019
229 1 -0.027759375 -0.00125 0.011221875 0.100605838167
230 1 -0.027759375 -0.00125 0.012403125 0.0514544891155
231 1 -0.027759375 -0.00125 0.013584375 0.0387831574184
232 1 -0.027759375 -0.00125 0.014765625 0.00362972529456
233 1 -0.027759375 -0.00125 0.015946875 0.00175342714497
234 1 -0.027759375 -0.00125 0.017128125 0.00172445155122
235 1 -0.027759375 -0.00125 0.018309375 0.000673394882699
236 1 -0.027759375 -0.00125 0.019490625 3.04707187517e-06
237 1 -0.027759375 -0.00125 0.020671875 4.99113913537e-18
238 1 -0.027759375 -0.00125 0.021853125 1.3775693296e-08
239 1 -0.027759375 -0.00125 0.023034375 2.60425775355e-16
240 1 -0.027759375 -0.00125 0.024215625 5.3118650303e-133
241 1 -0.026578125 -0.00125 -0.026578125 0.220685065834
242 1 -0.026578125 -0.00125 -0.025396875 0.202738445611
243 1 -0.026578125 -0.00125 -0.024215625 0.178736869794
244 1 -0.026578125 -0.00125 -0.023034375 0.350416332895
245 1 -0.026578125 -0.00125 -0.021853125 0.471841022701
246 1 -0.026578125 -0.00125 -0.020671875 0.371493826876
247 1 -0.026578125 -0.00125 -0.019490625 0.344351735017
248 1 -0.026578125 -0.00125 -0.018309375 0.511204594711
249 1 -0.026578125 -0.00125 -0.017128125 0.585916511616
250 1 -0.026578125 -0.00125 -0.015946875 0.717295401568
251 1 -0.026578125 -0.00125 -0.014765625 0.735352316162
252 1 -0.026578125 -0.00125 -0.013584375 0.712768519315
253 1 -0.026578125 -0.00125 -0.012403125 0.59669550933
254 1 -0.026578125 -0.00125 -0.011221875 0.639792577385
255 1 -0.026578125 -0.00125 -0.010040625 0.623825798459
256 1 -0.026578125 -0.00125 -0.008859375 0.576109628468
257 1 -0.026578125 -0.00125 -0.007678125 0.533128006459
258 1 -0.026578125 -0.00125 -0.006496875 0.463445000478
259 1 -0.026578125 -0.00125 -0.005315625 0.492814567735
260 1 -0.026578125 -0.00125 -0.004134375 0.605890733977
261 1 -0.026578125 -0.00125 -0.002953125 0.651451640194
262 1 -0.026578125 -0.00125 -0.001771875 0.680528933286
263 1 -0.026578125 -0.00125 -0.000590625 0.582757286091
264 1 -0.026578125 -0.00125 0.000590625 0.520605372732
265 1 -0.026578125 -0.00125 0.001771875 0.305710529138
266 1 -0.026578125 -0.00125 0.002953125 0.275105519296
267 1 -0.026578125 -0.00125 0.004134375 0.305028466558
268 1 -0.026578125 -0.00125 0.005315625 0.323486969586
269 1 -0.026578125 -0.00125 0.006496875 0.316313828494
270 1 -0.026578125 -0.00125 0.007678125 0.202066887402
271 1 -0.026578125 -0.00125 0.008859375 0.117331297369
272 1 -0.026578125 -0.00125 0.010040625 0.183660349064
273 1 -0.026578125 -0.00125 0.011221875 0.187566516486
274 1 -0.026578125 -0.00125 0.012403125 0.136144185111
275 1 -0.026578125 -0.00125 0.013584375 0.0834013423296
276 1 -0.026578125 -0.00125 0.014765625 0.0447369510396
277 1 -0.026578125 -0.00125 0.015946875 0.0432033963524
278 1 -0.026578125 -0.00125 0.017128125 0.0218082312125
279 1 -0.026578125 -0.00125 0.018309375 0.00298768212041
280 1 -0.026578125 -0.00125 0.019490625 3.05541492659e-06
281 1 -0.026578125 -0.00125 0.020671875 7.86943217219e-19
282 1 -0.026578125 -0.00125 0.021853125 1.56001158162e-29
283 1 -0.026578125 -0.00125 0.023034375 4.81128136392e-23
284 1 -0.026578125 -0.00125 0.024215625 4.42690298031e-33
285 1 -0.026578125 -0.00125 0.025396875 1.30696459233e-55
286 1 -0.026578125 -0.00125 0.026578125 5.44735185938e-39
287 1 -0.025396875 -0.00125 -0.026578125 0.141246175384
288 1 -0.025396875 -0.00125 -0.025396875 0.361497537989
289 1 -0.025396875 -0.00125 -0.024215625 0.473231937573
290 1 -0.025396875 -0.00125 -0.023034375 0.550120217975
291 1 -0.025396875 -0.00125 -0.021853125 0.54654256357
292 1 -0.025396875 -0.00125 -0.020671875 0.446244397205
293 1 -0.025396875 -0.00125 -0.019490625 0.460908773076
294 1 -0.025396875 -0.00125 -0.018309375 0.658705981967
295 1 -0.025396875 -0.00125 -0.017128125 0.653858024264
296 1 -0.025396875 -0.00125 -0.015946875 0.782869476869
297 1 -0.025396875 -0.00125 -0.014765625 0.791393090148
298 1 -0.025396875 -0.00125 -0.013584375 0.825857100611
299 1 -0.025396875 -0.00125 -0.012403125 0.867035659083
300 1 -0.025396875 -0.00125 -0.011221875 0.807459322178
301 1 -0.025396875 -0.00125 -0.010040625 0.720960097223
302 1 -0.025396875 -0.00125 -0.008859375 0.748204362565
303 1 -0.025396875 -0.00125 -0.007678125 0.807329309138
304 1 -0.025396875 -0.00125 -0.006496875 0.736992118765
305 1 -0.025396875 -0.00125 -0.005315625 0.712561299952
306 1 -0.025396875 -0.00125 -0.004134375 0.633175037578
307 1 -0.025396875 -0.00125 -0.002953125 0.752607544541
308 1 -0.025396875 -0.00125 -0.001771875 0.744979420261
309 1 -0.025396875 -0.00125 -0.000590625 0.590685878069
310 1 -0.025396875 -0.00125 0.000590625 0.536798426735
311 1 -0.025396875 -0.00125 0.001771875 0.370905432919
312 1 -0.025396875 -0.00125 0.002953125 0.341691691484
313 1 -0.025396875 -0.00125 0.004134375 0.382216866332
314 1 -0.025396875 -0.00125 0.005315625 0.343225142681
315 1 -0.025396875 -0.00125 0.006496875 0.343345980301
316 1 -0.025396875 -0.00125 0.007678125 0.231909481392
317 1 -0.025396875 -0.00125 0.008859375 0.13518119736
318 1 -0.025396875 -0.00125 0.010040625 0.201730555107
319 1 -0.025396875 -0.00125 0.011221875 0.218476324284
320 1 -0.025396875 -0.00125 0.012403125 0.203480771565
321 1 -0.025396875 -0.00125 0.013584375 0.145543428368
322 1 -0.025396875 -0.00125 0.014765625 0.0672363114678
323 1 -0.025396875 -0.00125 0.015946875 0.0652657119342
324 1 -0.025396875 -0.00125 0.017128125 0.0260850830481
325 1 -0.025396875 -0.00125 0.018309375 0.0145710187699
326 1 -0.025396875 -0.00125 0.019490625 4.40608416613e-06
327 1 -0.025396875 -0.00125 0.020671875 3.40126553026e-13
328 1 -0.025396875 -0.00125 0.021853125 5.2510272474e-64
329 1 -0.025396875 -0.00125 0.023034375 2.46337644762e-53
330 1 -0.025396875 -0.00125 0.024215625 6.7603216018e-72
331 1 -0.025396875 -0.00125 0.025396875 4.76957322643e-82
332 1 -0.025396875 -0.00125 0.026578125 2.4328757272e-93
333 1 -0.024215625 -0.00125 -0.027759375 0.0288268878769
334 1 -0.024215625 -0.00125 -0.026578125 0.235571847643
335 1 -0.024215625 -0.00125 -0.025396875 0.464843210103
336 1 -0.024215625 -0.00125 -0.024215625 0.779936140984
337 1 -0.024215625 -0.00125 -0.023034375 0.666904476234
338 1 -0.024215625 -0.00125 -0.021853125 0.543971349785
339 1 -0.024215625 -0.00125 -0.020671875 0.598105119892
340 1 -0.024215625 -0.00125 -0.019490625 0.527318305307
341 1 -0.024215625 -0.00125 -0.018309375 0.657956244654
342 1 -0.024215625 -0.00125 -0.017128125 0.704994854976
343 1 -0.024215625 -0.00125 -0.015946875 0.779159380863
344 1 -0.024215625 -0.00125 -0.014765625 0.728901961552
345 1 -0.024215625 -0.00125 -0.013584375 0.856695205725
346 1 -0.024215625 -0.00125 -0.012403125 0.868421111399
347 1 -0.024215625 -0.00125 -0.011221875 0.904052821474
348 1 -0.024215625 -0.00125 -0.010040625 0.866155026108
349 1 -0.024215625 -0.00125 -0.008859375 0.829057035256
350 1 -0.024215625 -0.00125 -0.007678125 0.921427120104
351 1 -0.024215625 -0.00125 -0.006496875 0.905474514835
352 1 -0.024215625 -0.00125 -0.005315625 0.845508153347
353 1 -0.024215625 -0.00125 -0.004134375 0.82082396963
354 1 -0.024215625 -0.00125 -0.002953125 0.770593054965
355 1 -0.024215625 -0.00125 -0.001771875 0.66202878498
356 1 -0.024215625 -0.00125 -0.000590625 0.570318870278
357 1 -0.024215625 -0.00125 0.000590625 0.537018166553
358 1 -0.024215625 -0.00125 0.001771875 0.502792230776
359 1 -0.024215625 -0.00125 0.002953125 0.443905995947
360 1 -0.024215625 -0.00125 0.004134375 0.434432516022
361 1 -0.024215625 -0.00125 0.005315625 0.34665186928
362 1 -0.024215625 -0.00125 0.006496875 0.262080836053
363 1 -0.024215625 -0.00125 0.007678125 0.201157432103
364 1 -0.024215625 -0.00125 0.008859375 0.102038285024
365 1 -0.024215625 -0.00125 0.010040625 0.119427388718
366 1 -0.024215625 -0.00125 0.011221875 0.0922030386535
367 1 -0.024215625 -0.00125 0.012403125 0.103253324764
368 1 -0.024215625 -0.00125 0.013584375 0.0905135303038
369 1 -0.024215625 -0.00125 0.014765625 0.0689220495608
370 1 -0.024215625 -0.00125 0.015946875 0.0616960769006
371 1 -0.024215625 -0.00125 0.017128125 0.0342684876348
372 1 -0.024215625 -0.00125 0.018309375 0.0105840160238
373 1 -0.024215625 -0.00125 0.019490625 3.1969799063e-05
374 1 -0.024215625 -0.00125 0.020671875 6.97898123602e-21
375 1 -0.024215625 -0.00125 0.021853125 1.6306041277e-108
376 1 -0.024215625 -0.00125 0.023034375 1.96388354551e-143
377 1 -0.024215625 -0.00125 0.024215625 6.91285117123e-148
378 1 -0.024215625 -0.00125 0.025396875 5.96078529726e-67
379 1 -0.024215625 -0.00125 0.026578125 4.35070011397e-47
380 1 -0.024215625 -0.00125 0.027759375 7.59958481925e-89
381 1 -0.023034375 -0.00125 -0.027759375 0.184621376062
382 1 -0.023034375 -0.00125 -0.026578125 0.241761825421
383 1 -0.023034375 -0.00125 -0.025396875 0.362237054422
384 1 -0.023034375 -0.00125 -0.024215625 0.626704477494
385 1 -0.023034375 -0.00125 -0.023034375 0.487035222459
386 1 -0.023034375 -0.00125 -0.021853125 0.597559828204
387 1 -0.023034375 -0.00125 -0.020671875 0.465020303683
388 1 -0.023034375 -0.00125 -0.019490625 0.58097384836
389 1 -0.023034375 -0.00125 -0.018309375 0.62824885075
390 1 -0.023034375 -0.00125 -0.017128125 0.739502576433
391 1 -0.023034375 -0.00125 -0.015946875 0.869399371637
392 1 -0.023034375 -0.00125 -0.014765625 0.879817350651
393 1 -0.023034375 -0.00125 -0.013584375 0.984190154228
394 1 -0.023034375 -0.00125 -0.012403125 0.977496117744
395 1 -0.023034375 -0.00125 -0.011221875 0.995366861612
396 1 -0.023034375 -0.00125 -0.010040625 0.987234230456
397 1 -0.023034375 -0.00125 -0.008859375 0.996412446503
398 1 -0.023034375 -0.00125 -0.007678125 0.998998518805
399 1 -0.023034375 -0.00125 -0.006496875 0.994860899256
400 1 -0.023034375 -0.00125 -0.005315625 0.97271231408
401 1 -0.023034375 -0.00125 -0.004134375 0.979502136884
402 1 -0.023034375 -0.00125 -0.002953125 0.888493492267
403 1 -0.023034375 -0.00125 -0.001771875 0.85106864827
404 1 -0.023034375 -0.00125 -0.000590625 0.727729749288
405 1 -0.023034375 -0.00125 0.000590625 0.706518904297
406 1 -0.023034375 -0.00125 0.001771875 0.656594626835
407 1 -0.023034375 -0.00125 0.002953125 0.461391834443
408 1 -0.023034375 -0.00125 0.004134375 0.407733553244
409 1 -0.023034375 -0.00125 0.005315625 0.290563428006
410 1 -0.023034375 -0.00125 0.006496875 0.0992612352122
411 1 -0.023034375 -0.00125 0.007678125 0.0794818484492
412 1 -0.023034375 -0.00125 0.008859375 0.0751998505827
413 1 -0.023034375 -0.00125 0.010040625 0.129141890289
414 1 -0.023034375 -0.00125 0.011221875 0.0861641711674
415 1 -0.023034375 -0.00125 0.012403125 0.137782348692
416 1 -0.023034375 -0.00125 0.013584375 0.0808641519829
417 1 -0.023034375 -0.00125 0.014765625 0.0941991251832
418 1 -0.023034375 -0.00125 0.015946875 0.123819527507
419 1 -0.023034375 -0.00125 0.017128125 0.0690441376248
420 1 -0.023034375 -0.00125 0.018309375 0.0137722673932
421 1 -0.023034375 -0.00125 0.019490625 5.78675841858e-06
422 1 -0.023034375 -0.00125 0.020671875 2.49933318646e-20
423 1 -0.023034375 -0.00125 0.021853125 4.72861805053e-174
424 1 -0.023034375 -0.00125 0.023034375 0.0
425 1 -0.023034375 -0.00125 0.024215625 1.15751020562e-152
426 1 -0.023034375 -0.00125 0.025396875 3.98426942407e-60
427 1 -0.023034375 -0.00125 0.026578125 2.67630591168e-48
428 1 -0.023034375 -0.00125 0.027759375 1.12597959394e-14
429 1 -0.021853125 -0.00125 -0.028940625 0.163132515242
430 1 -0.021853125 -0.00125 -0.027759375 0.501954645807
431 1 -0.021853125 -0.00125 -0.026578125 0.654214927504
432 1 -0.021853125 -0.00125 -0.025396875 0.441503344742
433 1 -0.021853125 -0.00125 -0.024215625 0.484024561178
434 1 -0.021853125 -0.00125 -0.023034375 0.509992221916
435 1 -0.021853125 -0.00125 -0.021853125 0.566733017062
436 1 -0.021853125 -0.00125 -0.020671875 0.556093535945
437 1 -0.021853125 -0.00125 -0.019490625 0.505691570556
438 1 -0.021853125 -0.00125 -0.018309375 0.758418771377
439 1 -0.021853125 -0.00125 -0.017128125 0.887175297605
440 1 -0.021853125 -0.00125 -0.015946875 0.937439178921
441 1 -0.021853125 -0.00125 -0.014765625 0.980620231111
442 1 -0.021853125 -0.00125 -0.013584375 0.998309280242
443 1 -0.021853125 -0.00125 -0.012403125 0.999540960675
444 1 -0.021853125 -0.00125 -0.011221875 0.999952270443
445 1 -0.021853125 -0.00125 -0.010040625 0.999989424779
446 1 -0.021853125 -0.00125 -0.008859375 0.99999961282
447 1 -0.021853125 -0.00125 -0.007678125 0.999997980416
448 1 -0.021853125 -0.00125 -0.006496875 0.999803382325
449 1 -0.021853125 -0.00125 -0.005315625 0.999276296877
450 1 -0.021853125 -0.00125 -0.004134375 0.997178578058
451 1 -0.021853125 -0.00125 -0.002953125 0.942617503921
452 1 -0.021853125 -0.00125 -0.001771875 0.919088802475
453 1 -0.021853125 -0.00125 -0.000590625 0.871342191333
454 1 -0.021853125 -0.00125 0.000590625 0.814964443496
455 1 -0.021853125 -0.00125 0.001771875 0.749512662216
456 1 -0.021853125 -0.00125 0.002953125 0.481534231061
457 1 -0.021853125 -0.00125 0.004134375 0.390136764752
458 1 -0.021853125 -0.00125 0.005315625 0.234033911938
459 1 -0.021853125 -0.00125 0.006496875 0.0932328302612
460 1 -0.021853125 -0.00125 0.007678125 0.072018868143
461 1 -0.021853125 -0.00125 0.008859375 0.0618704150444
462 1 -0.021853125 -0.00125 0.010040625 0.0496457309079
463 1 -0.021853125 -0.00125 0.011221875 0.0549573010163
464 1 -0.021853125 -0.00125 0.012403125 0.0564959166521
465 1 -0.021853125 -0.00125 0.013584375 0.109529433278
466 1 -0.021853125 -0.00125 0.014765625 0.158930852623
467 1 -0.021853125 -0.00125 0.015946875 0.191613581368
468 1 -0.021853125 -0.00125 0.017128125 0.0504427466208
469 1 -0.021853125 -0.00125 0.018309375 0.00278871233585
470 1 -0.021853125 -0.00125 0.019490625 4.56524523482e-07
471 1 -0.021853125 -0.00125 0.020671875 5.15663896482e-41
472 1 -0.021853125 -0.00125 0.021853125 5.12289076227e-132
473 1 -0.021853125 -0.00125 0.023034375 3.30104541598e-110
474 1 -0.021853125 -0.00125 0.024215625 2.09080006358e-81
475 1 -0.021853125 -0.00125 0.025396875 3.76550755399e-50
476 1 -0.021853125 -0.00125 0.026578125 1.65429886576e-14
477 1 -0.021853125 -0.00125 0.027759375 1.36415220763e-06
478 1 -0.021853125 -0.00125 0.028940625 4.82640130462e-16
479 1 -0.020671875 -0.00125 -0.030121875 0.00172523193202
480 1 -0.020671875 -0.00125 -0.028940625 0.0131852397861
481 1 -0.020671875 -0.00125 -0.027759375 0.282459184353
482 1 -0.020671875 -0.00125 -0.026578125 0.379448250349
483 1 -0.020671875 -0.00125 -0.025396875 0.48795182829
484 1 -0.020671875 -0.00125 -0.024215625 0.322031727611
485 1 -0.020671875 -0.00125 -0.023034375 0.408586912889
486 1 -0.020671875 -0.00125 -0.021853125 0.52981148332
487 1 -0.020671875 -0.00125 -0.020671875 0.447358320512
488 1 -0.020671875 -0.00125 -0.019490625 0.571349654753
489 1 -0.020671875 -0.00125 -0.018309375 0.782520242524
490 1 -0.020671875 -0.00125 -0.017128125 0.938951941148
491 1 -0.020671875 -0.00125 -0.015946875 0.933351230426
492 1 -0.020671875 -0.00125 -0.014765625 0.99230324838
493 1 -0.020671875 -0.00125 -0.013584375 0.999794287727
494 1 -0.020671875 -0.00125 -0.012403125 0.999984125242
495 1 -0.020671875 -0.00125 -0.011221875 0.999999248691
496 1 -0.020671875 -0.00125 -0.010040625 0.99999992652
497 1 -0.020671875 -0.00125 -0.008859375 0.999999999806
498 1 -0.020671875 -0.00125 -0.007678125 0.999999968298
499 1 -0.020671875 -0.00125 -0.006496875 0.999999996247
500 1 -0.020671875 -0.00125 -0.005315625 0.999943099756
501 1 -0.020671875 -0.00125 -0.004134375 0.999779328954
502 1 -0.020671875 -0.00125 -0.002953125 0.99966029728
503 1 -0.020671875 -0.00125 -0.001771875 0.997662357198
504 1 -0.020671875 -0.00125 -0.000590625 0.938753407255
505 1 -0.020671875 -0.00125 0.000590625 0.813539661824
506 1 -0.020671875 -0.00125 0.001771875 0.646337087033
507 1 -0.020671875 -0.00125 0.002953125 0.448631594468
508 1 -0.020671875 -0.00125 0.004134375 0.256915860688
509 1 -0.020671875 -0.00125 0.005315625 0.141333841365
510 1 -0.020671875 -0.00125 0.006496875 0.0632425331523
511 1 -0.020671875 -0.00125 0.007678125 0.0300135048777
512 1 -0.020671875 -0.00125 0.008859375 0.02864819201
513 1 -0.020671875 -0.00125 0.010040625 0.0123847278706
514 1 -0.020671875 -0.00125 0.011221875 0.0165880265361
515 1 -0.020671875 -0.00125 0.012403125 0.0212428827719
516 1 -0.020671875 -0.00125 0.013584375 0.0523204384663
517 1 -0.020671875 -0.00125 0.014765625 0.0579406215868
518 1 -0.020671875 -0.00125 0.015946875 0.163592942545
519 1 -0.020671875 -0.00125 0.017128125 0.0186443864477
520 1 -0.020671875 -0.00125 0.018309375 0.00711881976267
521 1 -0.020671875 -0.00125 0.019490625 2.23839850527e-09
522 1 -0.020671875 -0.00125 0.020671875 5.22468399521e-48
523 1 -0.020671875 -0.00125 0.021853125 3.0149031535e-147
524 1 -0.020671875 -0.00125 0.023034375 2.43504293253e-52
525 1 -0.020671875 -0.00125 0.024215625 2.29369049592e-77
526 1 -0.020671875 -0.00125 0.025396875 9.47970321339e-68
527 1 -0.020671875 -0.00125 0.026578125 3.57868069477e-27
528 1 -0.020671875 -0.00125 0.027759375 1.40694123197e-17
529 1 -0.020671875 -0.00125 0.028940625 1.85354521972e-95
530 1 -0.020671875 -0.00125 0.030121875 4.87407071648e-167