ITEM: TIMESTEP
0
ITEM: NUMBER OF ATOMS
3080
ITEM: BOX BOUNDS ss ss ss
-3.7007399999999996e-02 3.7007399999999996e-02
-2.0002499999999999e-03 2.5000000000000004e-07
-3.7007399999999996e-02 3.7007399999999996e-02
ITEM: ATOMS id type x y z c_1
0 1 -0.037209375 -0.00125 -0.000590625 0.999581542799
1 1 -0.036028125 -0.00125 -0.007678125 6.19050464512e-27
2 1 -0.036028125 -0.00125 -0.006496875 2.84801124676e-37
3 1 -0.036028125 -0.00125 -0.005315625 3.60948213151e-60
4 1 -0.036028125 -0.00125 -0.004134375 1.86679055844e-45
5 1 -0.036028125 -0.00125 -0.002953125 4.25386296314e-07
6 1 -0.036028125 -0.00125 -0.001771875 0.000275371619141
7 1 -0.036028125 -0.00125 -0.000590625 0.000201449232484
8 1 -0.036028125 -0.00125 0.000590625 9.44797705893e-20
9 1 -0.036028125 -0.00125 0.001771875 1.21061255485e-11
10 1 -0.036028125 -0.00125 0.002953125 1.06729545037e-42
11 1 -0.036028125 -0.00125 0.004134375 7.18817379924e-68
12 1 -0.036028125 -0.00125 0.005315625 4.15819057559e-108
13 1 -0.036028125 -0.00125 0.006496875 2.36492085195e-40
14 1 -0.036028125 -0.00125 0.007678125 4.39984787887e-38
15 1 -0.034846875 -0.00125 -0.011221875 1.00046101291e-05
16 1 -0.034846875 -0.00125 -0.010040625 1.20993027397e-11
17 1 -0.034846875 -0.00125 -0.008859375 3.74805213892e-08
18 1 -0.034846875 -0.00125 -0.007678125 1.05610130714e-49
19 1 -0.034846875 -0.00125 -0.006496875 1.28176914243e-54
20 1 -0.034846875 -0.00125 -0.005315625 7.76479641476e-101
21 1 -0.034846875 -0.00125 -0.004134375 1.96149548336e-111
22 1 -0.034846875 -0.00125 -0.002953125 1.24623318893e-14
23 1 -0.034846875 -0.00125 -0.001771875 9.10655889507e-09
24 1 -0.034846875 -0.00125 -0.000590625 6.74709104148e-08
25 1 -0.034846875 -0.00125 0.000590625 2.75456830224e-18
26 1 -0.034846875 -0.00125 0.001771875 2.16861810798e-39
27 1 -0.034846875 -0.00125 0.002953125 4.11903253734e-82
28 1 -0.034846875 -0.00125 0.004134375 2.21207136714e-126
29 1 -0.034846875 -0.00125 0.005315625 1.05766763414e-186
30 1 -0.034846875 -0.00125 0.006496875 1.64177260302e-112
31 1 -0.034846875 -0.00125 0.007678125 1.24848961614e-71
32 1 -0.034846875 -0.00125 0.008859375 3.21862478957e-12
33 1 -0.034846875 -0.00125 0.010040625 1.39630630984e-29
34 1 -0.034846875 -0.00125 0.011221875 1.14657163114e-18
35 1 -0.033665625 -0.00125 -0.013584375 1.86331103171e-14
36 1 -0.033665625 -0.00125 -0.012403125 0.000308856112474
37 1 -0.033665625 -0.00125 -0.011221875 1.021852439e-05
38 1 -0.033665625 -0.00125 -0.010040625 7.59847684227e-10
39 1 -0.033665625 -0.00125 -0.008859375 5.47767185934e-13
40 1 -0.033665625 -0.00125 -0.007678125 5.25013283133e-37
41 1 -0.033665625 -0.00125 -0.006496875 1.09900042236e-82
42 1 -0.033665625 -0.00125 -0.005315625 4.77939546652e-143
43 1 -0.033665625 -0.00125 -0.004134375 3.96146259357e-47
44 1 -0.033665625 -0.00125 -0.002953125 8.99456699662e-26
45 1 -0.033665625 -0.00125 -0.001771875 1.28590816445e-13
46 1 -0.033665625 -0.00125 -0.000590625 4.48051244036e-09
47 1 -0.033665625 -0.00125 0.000590625 1.35764580889e-16
48 1 -0.033665625 -0.00125 0.001771875 3.71929963695e-33
49 1 -0.033665625 -0.00125 0.002953125 9.93704990422e-55
50 1 -0.033665625 -0.00125 0.004134375 7.04839672153e-205
51 1 -0.033665625 -0.00125 0.005315625 5.28242444847e-190
52 1 -0.033665625 -0.00125 0.006496875 7.5649716696e-84
53 1 -0.033665625 -0.00125 0.007678125 3.08404610523e-36
54 1 -0.033665625 -0.00125 0.008859375 1.87338571188e-14
55 1 -0.033665625 -0.00125 0.010040625 3.78436260618e-20
56 1 -0.033665625 -0.00125 0.011221875 2.79263297929e-26
57 1 -0.033665625 -0.00125 0.012403125 2.34640621815e-15
58 1 -0.033665625 -0.00125 0.013584375 8.46642141662e-59
59 1 -0.032484375 -0.00125 -0.018309375 2.56048771886e-13
60 1 -0.032484375 -0.00125 -0.017128125 3.4294690355e-20
61 1 -0.032484375 -0.00125 -0.015946875 8.28718174802e-06
62 1 -0.032484375 -0.00125 -0.014765625 7.84211010312e-13
63 1 -0.032484375 -0.00125 -0.013584375 1.51278168723e-23
64 1 -0.032484375 -0.00125 -0.012403125 1.56075082787e-08
65 1 -0.032484375 -0.00125 -0.011221875 3.44390685364e-07
66 1 -0.032484375 -0.00125 -0.010040625 9.17559128392e-14
67 1 -0.032484375 -0.00125 -0.008859375 5.95314909857e-16
68 1 -0.032484375 -0.00125 -0.007678125 1.35784400843e-11
69 1 -0.032484375 -0.00125 -0.006496875 3.01845024746e-28
70 1 -0.032484375 -0.00125 -0.005315625 8.12582173324e-35
71 1 -0.032484375 -0.00125 -0.004134375 1.46417862092e-30
72 1 -0.032484375 -0.00125 -0.002953125 8.44403159671e-24
73 1 -0.032484375 -0.00125 -0.001771875 2.78625722008e-15
74 1 -0.032484375 -0.00125 -0.000590625 1.66140605586e-13
75 1 -0.032484375 -0.00125 0.000590625 8.90558728162e-19
76 1 -0.032484375 -0.00125 0.001771875 5.29325733969e-10
77 1 -0.032484375 -0.00125 0.002953125 8.99562373412e-38
78 1 -0.032484375 -0.00125 0.004134375 1.32482877974e-80
79 1 -0.032484375 -0.00125 0.005315625 4.78067776781e-122
80 1 -0.032484375 -0.00125 0.006496875 1.14473881463e-75
81 1 -0.032484375 -0.00125 0.007678125 1.6457488825e-41
82 1 -0.032484375 -0.00125 0.008859375 3.20039346648e-21
83 1 -0.032484375 -0.00125 0.010040625 4.54561887232e-21
84 1 -0.032484375 -0.00125 0.011221875 1.07107006947e-20
85 1 -0.032484375 -0.00125 0.012403125 3.66965567608e-38
86 1 -0.032484375 -0.00125 0.013584375 1.34258442879e-276
87 1 -0.032484375 -0.00125 0.014765625 2.93952117016e-48
88 1 -0.032484375 -0.00125 0.015946875 1.45663439372e-19
89 1 -0.032484375 -0.00125 0.017128125 7.783786893e-28
90 1 -0.032484375 -0.00125 0.018309375 5.14872577011e-45
91 1 -0.031303125 -0.00125 -0.019490625 6.43480924326e-12
92 1 -0.031303125 -0.00125 -0.018309375 1.47784248745e-08
93 1 -0.031303125 -0.00125 -0.017128125 6.32669970859e-10
94 1 -0.031303125 -0.00125 -0.015946875 1.43493487923e-11
95 1 -0.031303125 -0.00125 -0.014765625 2.30339536991e-10
96 1 -0.031303125 -0.00125 -0.013584375 5.56674344373e-14
97 1 -0.031303125 -0.00125 -0.012403125 3.1721421948e-10
98 1 -0.031303125 -0.00125 -0.011221875 3.17887246211e-09
99 1 -0.031303125 -0.00125 -0.010040625 1.80213338549e-11
100 1 -0.031303125 -0.00125 -0.008859375 3.00973738983e-17
101 1 -0.031303125 -0.00125 -0.007678125 3.85151458224e-14
102 1 -0.031303125 -0.00125 -0.006496875 4.67041073702e-18
103 1 -0.031303125 -0.00125 -0.005315625 1.70756585056e-17
104 1 -0.031303125 -0.00125 -0.004134375 5.42301381416e-24
105 1 -0.031303125 -0.00125 -0.002953125 1.71257841061e-12
106 1 -0.031303125 -0.00125 -0.001771875 2.32220493203e-10
107 1 -0.031303125 -0.00125 -0.000590625 4.45983779584e-11
108 1 -0.031303125 -0.00125 0.000590625 2.52899709318e-11
109 1 -0.031303125 -0.00125 0.001771875 2.19111860334e-10
110 1 -0.031303125 -0.00125 0.002953125 9.12266264004e-17
111 1 -0.031303125 -0.00125 0.004134375 1.92097070967e-20
112 1 -0.031303125 -0.00125 0.005315625 8.12096189361e-21
113 1 -0.031303125 -0.00125 0.006496875 1.03370190258e-31
114 1 -0.031303125 -0.00125 0.007678125 7.50041121682e-29
115 1 -0.031303125 -0.00125 0.008859375 1.52981357833e-39
116 1 -0.031303125 -0.00125 0.010040625 1.10386044798e-43
117 1 -0.031303125 -0.00125 0.011221875 1.68307389962e-26
118 1 -0.031303125 -0.00125 0.012403125 2.74196876873e-18
119 1 -0.031303125 -0.00125 0.013584375 9.25771397526e-48
120 1 -0.031303125 -0.00125 0.014765625 2.16699635314e-36
121 1 -0.031303125 -0.00125 0.015946875 1.81085141154e-36
122 1 -0.031303125 -0.00125 0.017128125 3.81310160969e-64
123 1 -0.031303125 -0.00125 0.018309375 2.6143050108e-38
124 1 -0.031303125 -0.00125 0.019490625 3.2806441444e-59
125 1 -0.030121875 -0.00125 -0.020671875 1.23287895303e-22
126 1 -0.030121875 -0.00125 -0.019490625 1.95378960612e-11
127 1 -0.030121875 -0.00125 -0.018309375 9.10465371903e-10
128 1 -0.030121875 -0.00125 -0.017128125 1.11736806868e-09
129 1 -0.030121875 -0.00125 -0.015946875 1.89532737641e-15
130 1 -0.030121875 -0.00125 -0.014765625 1.11038334141e-15
131 1 -0.030121875 -0.00125 -0.013584375 6.45359617244e-20
132 1 -0.030121875 -0.00125 -0.012403125 3.98380999166e-09
133 1 -0.030121875 -0.00125 -0.011221875 7.90653047234e-12
134 1 -0.030121875 -0.00125 -0.010040625 2.63907964057e-17
135 1 -0.030121875 -0.00125 -0.008859375 1.15916312453e-20
136 1 -0.030121875 -0.00125 -0.007678125 2.14530400357e-16
137 1 -0.030121875 -0.00125 -0.006496875 4.99091555909e-24
138 1 -0.030121875 -0.00125 -0.005315625 6.01213381978e-13
139 1 -0.030121875 -0.00125 -0.004134375 1.21513925849e-34
140 1 -0.030121875 -0.00125 -0.002953125 1.26793435097e-09
141 1 -0.030121875 -0.00125 -0.001771875 1.20147677175e-15
142 1 -0.030121875 -0.00125 -0.000590625 7.35594370912e-17
143 1 -0.030121875 -0.00125 0.000590625 2.64641501877e-14
144 1 -0.030121875 -0.00125 0.001771875 1.40602515632e-11
145 1 -0.030121875 -0.00125 0.002953125 5.81755098092e-12
146 1 -0.030121875 -0.00125 0.004134375 5.87234301287e-13
147 1 -0.030121875 -0.00125 0.005315625 2.40713177517e-16
148 1 -0.030121875 -0.00125 0.006496875 1.64830793926e-26
149 1 -0.030121875 -0.00125 0.007678125 1.80155084522e-43
150 1 -0.030121875 -0.00125 0.008859375 4.00169746452e-56
151 1 -0.030121875 -0.00125 0.010040625 1.45463804133e-28
152 1 -0.030121875 -0.00125 0.011221875 1.32287337179e-51
153 1 -0.030121875 -0.00125 0.012403125 1.2259924372e-20
154 1 -0.030121875 -0.00125 0.013584375 1.08226213149e-19
155 1 -0.030121875 -0.00125 0.014765625 9.02949629245e-19
156 1 -0.030121875 -0.00125 0.015946875 1.75159088092e-30
157 1 -0.030121875 -0.00125 0.017128125 1.13506794943e-35
158 1 -0.030121875 -0.00125 0.018309375 2.06302831316e-55
159 1 -0.030121875 -0.00125 0.019490625 4.4242389035e-122
160 1 -0.030121875 -0.00125 0.020671875 3.50926412598e-116
161 1 -0.028940625 -0.00125 -0.021853125 0.00261469323191
162 1 -0.028940625 -0.00125 -0.020671875 6.67070069069e-06
163 1 -0.028940625 -0.00125 -0.019490625 1.51620702455e-06
164 1 -0.028940625 -0.00125 -0.018309375 1.22824615408e-11
165 1 -0.028940625 -0.00125 -0.017128125 4.17859818637e-15
166 1 -0.028940625 -0.00125 -0.015946875 1.35630993925e-12
167 1 -0.028940625 -0.00125 -0.014765625 2.48056586194e-12
168 1 -0.028940625 -0.00125 -0.013584375 1.66945818841e-18
169 1 -0.028940625 -0.00125 -0.012403125 1.3273507821e-24
170 1 -0.028940625 -0.00125 -0.011221875 2.97012859511e-21
171 1 -0.028940625 -0.00125 -0.010040625 4.59584494355e-17
172 1 -0.028940625 -0.00125 -0.008859375 5.4992743933e-21
173 1 -0.028940625 -0.00125 -0.007678125 8.0717637041e-16
174 1 -0.028940625 -0.00125 -0.006496875 3.95309827552e-11
175 1 -0.028940625 -0.00125 -0.005315625 2.98374438577e-11
176 1 -0.028940625 -0.00125 -0.004134375 2.46978717569e-09
177 1 -0.028940625 -0.00125 -0.002953125 4.30774822692e-09
178 1 -0.028940625 -0.00125 -0.001771875 3.67632283697e-10
179 1 -0.028940625 -0.00125 -0.000590625 1.12669488519e-11
180 1 -0.028940625 -0.00125 0.000590625 3.34272149813e-09
181 1 -0.028940625 -0.00125 0.001771875 8.28454307674e-09
182 1 -0.028940625 -0.00125 0.002953125 3.5577936879e-08
183 1 -0.028940625 -0.00125 0.004134375 3.74430781761e-15
184 1 -0.028940625 -0.00125 0.005315625 3.26060703481e-29
185 1 -0.028940625 -0.00125 0.006496875 1.96267889173e-18
186 1 -0.028940625 -0.00125 0.007678125 1.17225540136e-32
187 1 -0.028940625 -0.00125 0.008859375 1.13459521104e-40
188 1 -0.028940625 -0.00125 0.010040625 4.42836421892e-45
189 1 -0.028940625 -0.00125 0.011221875 2.29310179361e-37
190 1 -0.028940625 -0.00125 0.012403125 3.99964499559e-38
191 1 -0.028940625 -0.00125 0.013584375 2.80951046176e-31
192 1 -0.028940625 -0.00125 0.014765625 2.16920478865e-29
193 1 -0.028940625 -0.00125 0.015946875 4.48478439018e-20
194 1 -0.028940625 -0.00125 0.017128125 1.73062430925e-23
195 1 -0.028940625 -0.00125 0.018309375 1.34591662488e-40
196 1 -0.028940625 -0.00125 0.019490625 6.44838134515e-104
197 1 -0.028940625 -0.00125 0.020671875 6.47021372923e-112
198 1 -0.028940625 -0.00125 0.021853125 3.54065201055e-70
199 1 -0.027759375 -0.00125 -0.024215625 3.00829099045e-08
200 1 -0.027759375 -0.00125 -0.023034375 7.42389725869e-05
201 1 -0.027759375 -0.00125 -0.021853125 0.0571205341117
202 1 -0.027759375 -0.00125 -0.020671875 0.000677076081445
203 1 -0.027759375 -0.00125 -0.019490625 3.88605172255e-07
204 1 -0.027759375 -0.00125 -0.018309375 2.61761984252e-07
205 1 -0.027759375 -0.00125 -0.017128125 3.22256192453e-09
206 1 -0.027759375 -0.00125 -0.015946875 3.53686461797e-16
207 1 -0.027759375 -0.00125 -0.014765625 1.21213799071e-16
208 1 -0.027759375 -0.00125 -0.013584375 1.26471764801e-24
209 1 -0.027759375 -0.00125 -0.012403125 1.88421820449e-13
210 1 -0.027759375 -0.00125 -0.011221875 2.92402135677e-14
211 1 -0.027759375 -0.00125 -0.010040625 3.66119770339e-12
212 1 -0.027759375 -0.00125 -0.008859375 1.98958844978e-15
213 1 -0.027759375 -0.00125 -0.007678125 2.79578766714e-08
214 1 -0.027759375 -0.00125 -0.006496875 2.7842905214e-06
215 1 -0.027759375 -0.00125 -0.005315625 3.73819720724e-05
216 1 -0.027759375 -0.00125 -0.004134375 0.000137085775055
217 1 -0.027759375 -0.00125 -0.002953125 0.000608702792583
218 1 -0.027759375 -0.00125 -0.001771875 1.90510916683e-05
219 1 -0.027759375 -0.00125 -0.000590625 0.00030944598092
220 1 -0.027759375 -0.00125 0.000590625 1.46917480274e-05
221 1 -0.027759375 -0.00125 0.001771875 7.44499132231e-05
222 1 -0.027759375 -0.00125 0.002953125 4.06238342333e-09
223 1 -0.027759375 -0.00125 0.004134375 4.55087703122e-12
224 1 -0.027759375 -0.00125 0.005315625 2.44699406284e-16
225 1 -0.027759375 -0.00125 0.006496875 3.9465655252e-19
226 1 -0.027759375 -0.00125 0.007678125 2.91856281056e-28
227 1 -0.027759375 -0.00125 0.008859375 1.86746064943e-11
228 1 -0.027759375 -0.00125 0.010040625 4.21992395949e-12
229 1 -0.027759375 -0.00125 0.011221875 1.99823910815e-18
230 1 -0.027759375 -0.00125 0.012403125 3.70909946157e-14
231 1 -0.027759375 -0.00125 0.013584375 9.13010290004e-11
232 1 -0.027759375 -0.00125 0.014765625 1.52439759096e-09
233 1 -0.027759375 -0.00125 0.015946875 1.37377401833e-13
234 1 -0.027759375 -0.00125 0.017128125 1.07802846982e-26
235 1 -0.027759375 -0.00125 0.018309375 2.66814250203e-25
236 1 -0.027759375 -0.00125 0.019490625 1.95924533507e-48
237 1 -0.027759375 -0.00125 0.020671875 2.23592842396e-89
238 1 -0.027759375 -0.00125 0.021853125 1.1196738055e-62
239 1 -0.027759375 -0.00125 0.023034375 4.23683315201e-118
240 1 -0.027759375 -0.00125 0.024215625 0.0
241 1 -0.026578125 -0.00125 -0.026578125 9.16168857176e-13
242 1 -0.026578125 -0.00125 -0.025396875 4.26746737667e-12
243 1 -0.026578125 -0.00125 -0.024215625 2.66768878392e-09
244 1 -0.026578125 -0.00125 -0.023034375 8.13230927386e-05
245 1 -0.026578125 -0.00125 -0.021853125 0.00210408946687
246 1 -0.026578125 -0.00125 -0.020671875 0.000609270355243
247 1 -0.026578125 -0.00125 -0.019490625 4.70478410938e-05
248 1 -0.026578125 -0.00125 -0.018309375 1.39243177119e-06
249 1 -0.026578125 -0.00125 -0.017128125 4.59708741061e-08
250 1 -0.026578125 -0.00125 -0.015946875 5.63047649623e-13
251 1 -0.026578125 -0.00125 -0.014765625 8.80880146286e-19
252 1 -0.026578125 -0.00125 -0.013584375 9.20468545514e-16
253 1 -0.026578125 -0.00125 -0.012403125 7.4468963027e-13
254 1 -0.026578125 -0.00125 -0.011221875 7.05204392535e-10
255 1 -0.026578125 -0.00125 -0.010040625 1.74212679558e-08
256 1 -0.026578125 -0.00125 -0.008859375 3.76387797208e-06
257 1 -0.026578125 -0.00125 -0.007678125 0.00820918738254
258 1 -0.026578125 -0.00125 -0.006496875 0.0102412290034
259 1 -0.026578125 -0.00125 -0.005315625 0.00319034559346
260 1 -0.026578125 -0.00125 -0.004134375 0.00194037058871
261 1 -0.026578125 -0.00125 -0.002953125 0.000892441438524
262 1 -0.026578125 -0.00125 -0.001771875 0.00126501701664
263 1 -0.026578125 -0.00125 -0.000590625 0.000312266539336
264 1 -0.026578125 -0.00125 0.000590625 0.000220027426156
265 1 -0.026578125 -0.00125 0.001771875 0.000986736310975
266 1 -0.026578125 -0.00125 0.002953125 0.000693927026031
267 1 -0.026578125 -0.00125 0.004134375 9.24412952637e-06
268 1 -0.026578125 -0.00125 0.005315625 4.81293913051e-06
269 1 -0.026578125 -0.00125 0.006496875 6.71609394804e-15
270 1 -0.026578125 -0.00125 0.007678125 4.36953211376e-10
271 1 -0.026578125 -0.00125 0.008859375 7.45651746475e-13
272 1 -0.026578125 -0.00125 0.010040625 1.64654551722e-10
273 1 -0.026578125 -0.00125 0.011221875 3.33298571355e-07
274 1 -0.026578125 -0.00125 0.012403125 1.34862616415e-07
275 1 -0.026578125 -0.00125 0.013584375 5.73654550437e-06
276 1 -0.026578125 -0.00125 0.014765625 1.17515082813e-06
277 1 -0.026578125 -0.00125 0.015946875 5.79216203442e-10
278 1 -0.026578125 -0.00125 0.017128125 4.7023589551e-10
279 1 -0.026578125 -0.00125 0.018309375 2.16172775653e-13
280 1 -0.026578125 -0.00125 0.019490625 6.31233688864e-26
281 1 -0.026578125 -0.00125 0.020671875 2.40075952707e-64
282 1 -0.026578125 -0.00125 0.021853125 9.47464272937e-111
283 1 -0.026578125 -0.00125 0.023034375 1.33752308677e-240
284 1 -0.026578125 -0.00125 0.024215625 1.30245389858e-184
285 1 -0.026578125 -0.00125 0.025396875 2.8628237228e-153
286 1 -0.026578125 -0.00125 0.026578125 6.29186666096e-88
287 1 -0.025396875 -0.00125 -0.026578125 1.04421038973e-19
288 1 -0.025396875 -0.00125 -0.025396875 1.70708432098e-21
289 1 -0.025396875 -0.00125 -0.024215625 7.86038102712e-10
290 1 -0.025396875 -0.00125 -0.023034375 1.46548034743e-06
291 1 -0.025396875 -0.00125 -0.021853125 0.000175412828036
292 1 -0.025396875 -0.00125 -0.020671875 4.95664314152e-05
293 1 -0.025396875 -0.00125 -0.019490625 1.24677329386e-06
294 1 -0.025396875 -0.00125 -0.018309375 1.6907137168e-06
295 1 -0.025396875 -0.00125 -0.017128125 3.29205292033e-10
296 1 -0.025396875 -0.00125 -0.015946875 1.24935039219e-07
297 1 -0.025396875 -0.00125 -0.014765625 8.65093053488e-08
298 1 -0.025396875 -0.00125 -0.013584375 7.29881192917e-10
299 1 -0.025396875 -0.00125 -0.012403125 2.76300075282e-05
300 1 -0.025396875 -0.00125 -0.011221875 7.99120300193e-05
301 1 -0.025396875 -0.00125 -0.010040625 0.00464670363176
302 1 -0.025396875 -0.00125 -0.008859375 0.00271316938191
303 1 -0.025396875 -0.00125 -0.007678125 0.0144844357744
304 1 -0.025396875 -0.00125 -0.006496875 0.0069699951838
305 1 -0.025396875 -0.00125 -0.005315625 0.00817238289301
306 1 -0.025396875 -0.00125 -0.004134375 0.00765310602988
307 1 -0.025396875 -0.00125 -0.002953125 0.00176270895267
308 1 -0.025396875 -0.00125 -0.001771875 0.0010433325999
309 1 -0.025396875 -0.00125 -0.000590625 3.48171837035e-05
310 1 -0.025396875 -0.00125 0.000590625 0.000375226061676
311 1 -0.025396875 -0.00125 0.001771875 0.00180388729763
312 1 -0.025396875 -0.00125 0.002953125 0.000572984742209
313 1 -0.025396875 -0.00125 0.004134375 0.000753253066527
314 1 -0.025396875 -0.00125 0.005315625 0.000122784159513
315 1 -0.025396875 -0.00125 0.006496875 2.41474776633e-05
316 1 -0.025396875 -0.00125 0.007678125 1.24650055587e-06
317 1 -0.025396875 -0.00125 0.008859375 2.29754549197e-07
318 1 -0.025396875 -0.00125 0.010040625 3.46965706884e-08
319 1 -0.025396875 -0.00125 0.011221875 1.69662708281e-06
320 1 -0.025396875 -0.00125 0.012403125 0.00029739466316
321 1 -0.025396875 -0.00125 0.013584375 8.51908494888e-05
322 1 -0.025396875 -0.00125 0.014765625 8.72859271057e-05
323 1 -0.025396875 -0.00125 0.015946875 4.71942284711e-06
324 1 -0.025396875 -0.00125 0.017128125 3.56666939576e-07
325 1 -0.025396875 -0.00125 0.018309375 3.38617300363e-11
326 1 -0.025396875 -0.00125 0.019490625 7.36188041277e-19
327 1 -0.025396875 -0.00125 0.020671875 9.62391184645e-24
328 1 -0.025396875 -0.00125 0.021853125 4.3111850029e-136
329 1 -0.025396875 -0.00125 0.023034375 2.42400214467e-174
330 1 -0.025396875 -0.00125 0.024215625 1.81925636384e-234
331 1 -0.025396875 -0.00125 0.025396875 1.7021962734e-145
332 1 -0.025396875 -0.00125 0.026578125 0.0
333 1 -0.024215625 -0.00125 -0.027759375 1.39390601534e-13
334 1 -0.024215625 -0.00125 -0.026578125 7.09864202599e-14
335 1 -0.024215625 -0.00125 -0.025396875 6.57067074055e-12
336 1 -0.024215625 -0.00125 -0.024215625 1.10996842141e-06
337 1 -0.024215625 -0.00125 -0.023034375 1.8156149986e-06
338 1 -0.024215625 -0.00125 -0.021853125 0.000112876171327
339 1 -0.024215625 -0.00125 -0.020671875 7.34465601571e-05
340 1 -0.024215625 -0.00125 -0.019490625 2.29692981417e-06
341 1 -0.024215625 -0.00125 -0.018309375 1.6803418213e-08
342 1 -0.024215625 -0.00125 -0.017128125 9.1205988084e-08
343 1 -0.024215625 -0.00125 -0.015946875 3.75028896489e-06
344 1 -0.024215625 -0.00125 -0.014765625 4.40057085199e-05
345 1 -0.024215625 -0.00125 -0.013584375 0.000367350000553
346 1 -0.024215625 -0.00125 -0.012403125 0.00973926247427
347 1 -0.024215625 -0.00125 -0.011221875 0.0140652891491
348 1 -0.024215625 -0.00125 -0.010040625 0.0151938335466
349 1 -0.024215625 -0.00125 -0.008859375 0.00292695498245
350 1 -0.024215625 -0.00125 -0.007678125 0.00162178887066
351 1 -0.024215625 -0.00125 -0.006496875 0.0155484208204
352 1 -0.024215625 -0.00125 -0.005315625 0.0175030069137
353 1 -0.024215625 -0.00125 -0.004134375 0.0141698474664
354 1 -0.024215625 -0.00125 -0.002953125 0.000718344997067
355 1 -0.024215625 -0.00125 -0.001771875 0.000484516173967
356 1 -0.024215625 -0.00125 -0.000590625 0.000362454315526
357 1 -0.024215625 -0.00125 0.000590625 0.000971740691533
358 1 -0.024215625 -0.00125 0.001771875 0.00256203774003
359 1 -0.024215625 -0.00125 0.002953125 0.00168931748722
360 1 -0.024215625 -0.00125 0.004134375 0.000718028142468
361 1 -0.024215625 -0.00125 0.005315625 0.00018484018442
362 1 -0.024215625 -0.00125 0.006496875 9.59507359885e-05
363 1 -0.024215625 -0.00125 0.007678125 6.49905835893e-05
364 1 -0.024215625 -0.00125 0.008859375 5.76563326706e-06
365 1 -0.024215625 -0.00125 0.010040625 0.000119110322411
366 1 -0.024215625 -0.00125 0.011221875 3.42119539475e-06
367 1 -0.024215625 -0.00125 0.012403125 0.000511961675088
368 1 -0.024215625 -0.00125 0.013584375 0.000296174758801
369 1 -0.024215625 -0.00125 0.014765625 0.000457832408676
370 1 -0.024215625 -0.00125 0.015946875 4.2454499209e-05
371 1 -0.024215625 -0.00125 0.017128125 2.13327039011e-07
372 1 -0.024215625 -0.00125 0.018309375 3.44489006313e-12
373 1 -0.024215625 -0.00125 0.019490625 6.15676663865e-22
374 1 -0.024215625 -0.00125 0.020671875 1.20825366419e-30
375 1 -0.024215625 -0.00125 0.021853125 3.13869305842e-31
376 1 -0.024215625 -0.00125 0.023034375 5.57709402834e-106
377 1 -0.024215625 -0.00125 0.024215625 8.74840908908e-305
378 1 -0.024215625 -0.00125 0.025396875 2.56179769048e-225
379 1 -0.024215625 -0.00125 0.026578125 8.27397396595e-151
380 1 -0.024215625 -0.00125 0.027759375 3.38948606685e-109
381 1 -0.023034375 -0.00125 -0.027759375 5.77791755354e-22
382 1 -0.023034375 -0.00125 -0.026578125 8.26629289754e-08
383 1 -0.023034375 -0.00125 -0.025396875 1.15414162135e-07
384 1 -0.023034375 -0.00125 -0.024215625 2.38112786442e-06
385 1 -0.023034375 -0.00125 -0.023034375 0.000477862027338
386 1 -0.023034375 -0.00125 -0.021853125 9.87826538041e-06
387 1 -0.023034375 -0.00125 -0.020671875 0.000149600524992
388 1 -0.023034375 -0.00125 -0.019490625 2.85105594769e-05
389 1 -0.023034375 -0.00125 -0.018309375 7.59544337898e-06
390 1 -0.023034375 -0.00125 -0.017128125 0.000564553946538
391 1 -0.023034375 -0.00125 -0.015946875 0.00167230940026
392 1 -0.023034375 -0.00125 -0.014765625 0.00092828118213
393 1 -0.023034375 -0.00125 -0.013584375 0.010520505432
394 1 -0.023034375 -0.00125 -0.012403125 0.0090666352088
395 1 -0.023034375 -0.00125 -0.011221875 0.0095650934545
396 1 -0.023034375 -0.00125 -0.010040625 0.0113121111862
397 1 -0.023034375 -0.00125 -0.008859375 0.0202192952835
398 1 -0.023034375 -0.00125 -0.007678125 0.0068244106538
399 1 -0.023034375 -0.00125 -0.006496875 0.0418849881073
400 1 -0.023034375 -0.00125 -0.005315625 0.0243441791513
401 1 -0.023034375 -0.00125 -0.004134375 0.0160894491481
402 1 -0.023034375 -0.00125 -0.002953125 0.00174970968834
403 1 -0.023034375 -0.00125 -0.001771875 0.00447320240948
404 1 -0.023034375 -0.00125 -0.000590625 0.00275958295153
405 1 -0.023034375 -0.00125 0.000590625 0.00235444688212
406 1 -0.023034375 -0.00125 0.001771875 0.00158228166864
407 1 -0.023034375 -0.00125 0.002953125 0.00263580851084
408 1 -0.023034375 -0.00125 0.004134375 0.000304926714571
409 1 -0.023034375 -0.00125 0.005315625 1.24373780544e-07
410 1 -0.023034375 -0.00125 0.006496875 0.000458467542227
411 1 -0.023034375 -0.00125 0.007678125 0.000267028096537
412 1 -0.023034375 -0.00125 0.008859375 5.00807273373e-05
413 1 -0.023034375 -0.00125 0.010040625 4.16301339004e-05
414 1 -0.023034375 -0.00125 0.011221875 0.000117234945949
415 1 -0.023034375 -0.00125 0.012403125 0.000126006657301
416 1 -0.023034375 -0.00125 0.013584375 0.00084842901724
417 1 -0.023034375 -0.00125 0.014765625 0.00206953325764
418 1 -0.023034375 -0.00125 0.015946875 0.000321356978663
419 1 -0.023034375 -0.00125 0.017128125 3.82077423618e-07
420 1 -0.023034375 -0.00125 0.018309375 4.04809567322e-06
421 1 -0.023034375 -0.00125 0.019490625 1.64965177486e-07
422 1 -0.023034375 -0.00125 0.020671875 7.99976513974e-11
423 1 -0.023034375 -0.00125 0.021853125 1.40030168845e-28
424 1 -0.023034375 -0.00125 0.023034375 3.21192063465e-45
425 1 -0.023034375 -0.00125 0.024215625 1.27300729796e-64
426 1 -0.023034375 -0.00125 0.025396875 6.76802221163e-168
427 1 -0.023034375 -0.00125 0.026578125 2.6480363782e-102
428 1 -0.023034375 -0.00125 0.027759375 1.97308050983e-39
429 1 -0.021853125 -0.00125 -0.028940625 1.33174681698e-09
430 1 -0.021853125 -0.00125 -0.027759375 4.86881769302e-07
431 1 -0.021853125 -0.00125 -0.026578125 2.14174433384e-08
432 1 -0.021853125 -0.00125 -0.025396875 2.14548083641e-05
433 1 -0.021853125 -0.00125 -0.024215625 0.000204787512067
434 1 -0.021853125 -0.00125 -0.023034375 0.0009879868052
435 1 -0.021853125 -0.00125 -0.021853125 0.00106265027501
436 1 -0.021853125 -0.00125 -0.020671875 0.000210298204846
437 1 -0.021853125 -0.00125 -0.019490625 0.000167005651188
438 1 -0.021853125 -0.00125 -0.018309375 0.000108981732817
439 1 -0.021853125 -0.00125 -0.017128125 0.00277473594901
440 1 -0.021853125 -0.00125 -0.015946875 0.00477820403648
441 1 -0.021853125 -0.00125 -0.014765625 0.0129015337529
442 1 -0.021853125 -0.00125 -0.013584375 0.0161779520321
443 1 -0.021853125 -0.00125 -0.012403125 0.00472558532333
444 1 -0.021853125 -0.00125 -0.011221875 0.0115238002514
445 1 -0.021853125 -0.00125 -0.010040625 0.00746149910004
446 1 -0.021853125 -0.00125 -0.008859375 0.00918238454149
447 1 -0.021853125 -0.00125 -0.007678125 0.0241947722709
448 1 -0.021853125 -0.00125 -0.006496875 0.0301391268386
449 1 -0.021853125 -0.00125 -0.005315625 0.015536851607
450 1 -0.021853125 -0.00125 -0.004134375 0.0110795598706
451 1 -0.021853125 -0.00125 -0.002953125 0.00104623245868
452 1 -0.021853125 -0.00125 -0.001771875 0.00107859708908
453 1 -0.021853125 -0.00125 -0.000590625 0.0127292787096
454 1 -0.021853125 -0.00125 0.000590625 0.0037868932329
455 1 -0.021853125 -0.00125 0.001771875 0.00043619204029
456 1 -0.021853125 -0.00125 0.002953125 0.000759254399533
457 1 -0.021853125 -0.00125 0.004134375 0.00315490849224
458 1 -0.021853125 -0.00125 0.005315625 0.00237866504012
459 1 -0.021853125 -0.00125 0.006496875 0.000628524641994
460 1 -0.021853125 -0.00125 0.007678125 0.000484443503401
461 1 -0.021853125 -0.00125 0.008859375 0.00154530639406
462 1 -0.021853125 -0.00125 0.010040625 0.00124737930225
463 1 -0.021853125 -0.00125 0.011221875 0.000592424593584
464 1 -0.021853125 -0.00125 0.012403125 0.00195398959839
465 1 -0.021853125 -0.00125 0.013584375 0.00289499318441
466 1 -0.021853125 -0.00125 0.014765625 0.00436748003821
467 1 -0.021853125 -0.00125 0.015946875 0.00204440022613
468 1 -0.021853125 -0.00125 0.017128125 9.67771314024e-05
469 1 -0.021853125 -0.00125 0.018309375 1.07665652498e-05
470 1 -0.021853125 -0.00125 0.019490625 8.0698502874e-06
471 1 -0.021853125 -0.00125 0.020671875 5.2971314906e-08
472 1 -0.021853125 -0.00125 0.021853125 2.61459417543e-10
473 1 -0.021853125 -0.00125 0.023034375 1.32358647452e-18
474 1 -0.021853125 -0.00125 0.024215625 6.17986980529e-32
475 1 -0.021853125 -0.00125 0.025396875 4.20818262879e-30
476 1 -0.021853125 -0.00125 0.026578125 1.01203664545e-47
477 1 -0.021853125 -0.00125 0.027759375 5.64047623922e-39
478 1 -0.021853125 -0.00125 0.028940625 1.15675249914e-29
479 1 -0.020671875 -0.00125 -0.030121875 4.85014270713e-08
480 1 -0.020671875 -0.00125 -0.028940625 6.03370548746e-08
481 1 -0.020671875 -0.00125 -0.027759375 4.53000651825e-07
482 1 -0.020671875 -0.00125 -0.026578125 2.7763310562e-05
483 1 -0.020671875 -0.00125 -0.025396875 1.2931104496e-08
484 1 -0.020671875 -0.00125 -0.024215625 5.41555260843e-05
485 1 -0.020671875 -0.00125 -0.023034375 0.00213938667778
486 1 -0.020671875 -0.00125 -0.021853125 0.00143346130986
487 1 -0.020671875 -0.00125 -0.020671875 0.000723031263931
488 1 -0.020671875 -0.00125 -0.019490625 0.00308177234774
489 1 -0.020671875 -0.00125 -0.018309375 0.00713462017066
490 1 -0.020671875 -0.00125 -0.017128125 0.00576937519799
491 1 -0.020671875 -0.00125 -0.015946875 0.00528055531351
492 1 -0.020671875 -0.00125 -0.014765625 0.00844198724731
493 1 -0.020671875 -0.00125 -0.013584375 0.0108233772146
494 1 -0.020671875 -0.00125 -0.012403125 0.00974469080959
495 1 -0.020671875 -0.00125 -0.011221875 0.000338241028644
496 1 -0.020671875 -0.00125 -0.010040625 0.00304903734174
497 1 -0.020671875 -0.00125 -0.008859375 0.000739505273291
498 1 -0.020671875 -0.00125 -0.007678125 0.00351920002626
499 1 -0.020671875 -0.00125 -0.006496875 0.0387030222046
500 1 -0.020671875 -0.00125 -0.005315625 0.0188341704947
501 1 -0.020671875 -0.00125 -0.004134375 0.0258586036973
502 1 -0.020671875 -0.00125 -0.002953125 0.00430180151108
503 1 -0.020671875 -0.00125 -0.001771875 0.0167627382509
504 1 -0.020671875 -0.00125 -0.000590625 0.00925330849409
505 1 -0.020671875 -0.00125 0.000590625 0.0130337357684
506 1 -0.020671875 -0.00125 0.001771875 0.00549789583249
507 1 -0.020671875 -0.00125 0.002953125 0.000799787053197
508 1 -0.020671875 -0.00125 0.004134375 0.00148891357761
509 1 -0.020671875 -0.00125 0.005315625 0.000870787042622
510 1 -0.020671875 -0.00125 0.006496875 0.000402214808133
511 1 -0.020671875 -0.00125 0.007678125 0.00136338007344
512 1 -0.020671875 -0.00125 0.008859375 0.0077462293157