ITEM: TIMESTEP
0
ITEM: NUMBER OF ATOMS
3080
ITEM: BOX BOUNDS ss ss ss
-3.7007399999999996e-02 3.7007399999999996e-02
-2.0002499999999999e-03 2.5000000000000004e-07
-3.7007399999999996e-02 3.7007399999999996e-02
ITEM: ATOMS id type x y z c_1
0 1 -0.037209375 -0.00125 -0.000590625 0.00785466908807
1 1 -0.036028125 -0.00125 -0.007678125 0.0
2 1 -0.036028125 -0.00125 -0.006496875 0.0
3 1 -0.036028125 -0.00125 -0.005315625 0.0
4 1 -0.036028125 -0.00125 -0.004134375 0.0
5 1 -0.036028125 -0.00125 -0.002953125 0.0
6 1 -0.036028125 -0.00125 -0.001771875 0.0
7 1 -0.036028125 -0.00125 -0.000590625 0.0
8 1 -0.036028125 -0.00125 0.000590625 0.0
9 1 -0.036028125 -0.00125 0.001771875 0.0
10 1 -0.036028125 -0.00125 0.002953125 0.0
11 1 -0.036028125 -0.00125 0.004134375 0.0
12 1 -0.036028125 -0.00125 0.005315625 0.0
13 1 -0.036028125 -0.00125 0.006496875 0.0
14 1 -0.036028125 -0.00125 0.007678125 0.0
15 1 -0.034846875 -0.00125 -0.011221875 0.0
16 1 -0.034846875 -0.00125 -0.010040625 0.0
17 1 -0.034846875 -0.00125 -0.008859375 0.0
18 1 -0.034846875 -0.00125 -0.007678125 0.0
19 1 -0.034846875 -0.00125 -0.006496875 0.0
20 1 -0.034846875 -0.00125 -0.005315625 0.0
21 1 -0.034846875 -0.00125 -0.004134375 0.0
22 1 -0.034846875 -0.00125 -0.002953125 0.0
23 1 -0.034846875 -0.00125 -0.001771875 0.0
24 1 -0.034846875 -0.00125 -0.000590625 0.0
25 1 -0.034846875 -0.00125 0.000590625 0.0
26 1 -0.034846875 -0.00125 0.001771875 0.0
27 1 -0.034846875 -0.00125 0.002953125 0.0
28 1 -0.034846875 -0.00125 0.004134375 0.0
29 1 -0.034846875 -0.00125 0.005315625 0.0
30 1 -0.034846875 -0.00125 0.006496875 0.0
31 1 -0.034846875 -0.00125 0.007678125 0.0
32 1 -0.034846875 -0.00125 0.008859375 4.55935197489e-138
33 1 -0.034846875 -0.00125 0.010040625 0.0
34 1 -0.034846875 -0.00125 0.011221875 3.25995624461e-186
35 1 -0.033665625 -0.00125 -0.013584375 0.0
36 1 -0.033665625 -0.00125 -0.012403125 1.09515607856e-241
37 1 -0.033665625 -0.00125 -0.011221875 0.0
38 1 -0.033665625 -0.00125 -0.010040625 0.0
39 1 -0.033665625 -0.00125 -0.008859375 0.0
40 1 -0.033665625 -0.00125 -0.007678125 0.0
41 1 -0.033665625 -0.00125 -0.006496875 0.0
42 1 -0.033665625 -0.00125 -0.005315625 0.0
43 1 -0.033665625 -0.00125 -0.004134375 0.0
44 1 -0.033665625 -0.00125 -0.002953125 0.0
45 1 -0.033665625 -0.00125 -0.001771875 0.0
46 1 -0.033665625 -0.00125 -0.000590625 0.0
47 1 -0.033665625 -0.00125 0.000590625 0.0
48 1 -0.033665625 -0.00125 0.001771875 0.0
49 1 -0.033665625 -0.00125 0.002953125 0.0
50 1 -0.033665625 -0.00125 0.004134375 0.0
51 1 -0.033665625 -0.00125 0.005315625 0.0
52 1 -0.033665625 -0.00125 0.006496875 0.0
53 1 -0.033665625 -0.00125 0.007678125 0.0
54 1 -0.033665625 -0.00125 0.008859375 1.8877449577e-237
55 1 -0.033665625 -0.00125 0.010040625 9.49868735307e-281
56 1 -0.033665625 -0.00125 0.011221875 4.05214394727e-104
57 1 -0.033665625 -0.00125 0.012403125 3.27658075498e-38
58 1 -0.033665625 -0.00125 0.013584375 0.0
59 1 -0.032484375 -0.00125 -0.018309375 0.0
60 1 -0.032484375 -0.00125 -0.017128125 0.0
61 1 -0.032484375 -0.00125 -0.015946875 1.43504969882e-241
62 1 -0.032484375 -0.00125 -0.014765625 6.98693116955e-219
63 1 -0.032484375 -0.00125 -0.013584375 2.41969916862e-275
64 1 -0.032484375 -0.00125 -0.012403125 1.97758701842e-272
65 1 -0.032484375 -0.00125 -0.011221875 0.0
66 1 -0.032484375 -0.00125 -0.010040625 0.0
67 1 -0.032484375 -0.00125 -0.008859375 0.0
68 1 -0.032484375 -0.00125 -0.007678125 0.0
69 1 -0.032484375 -0.00125 -0.006496875 0.0
70 1 -0.032484375 -0.00125 -0.005315625 0.0
71 1 -0.032484375 -0.00125 -0.004134375 0.0
72 1 -0.032484375 -0.00125 -0.002953125 0.0
73 1 -0.032484375 -0.00125 -0.001771875 0.0
74 1 -0.032484375 -0.00125 -0.000590625 0.0
75 1 -0.032484375 -0.00125 0.000590625 0.0
76 1 -0.032484375 -0.00125 0.001771875 0.0
77 1 -0.032484375 -0.00125 0.002953125 0.0
78 1 -0.032484375 -0.00125 0.004134375 0.0
79 1 -0.032484375 -0.00125 0.005315625 0.0
80 1 -0.032484375 -0.00125 0.006496875 0.0
81 1 -0.032484375 -0.00125 0.007678125 0.0
82 1 -0.032484375 -0.00125 0.008859375 0.0
83 1 -0.032484375 -0.00125 0.010040625 0.0
84 1 -0.032484375 -0.00125 0.011221875 6.52710587822e-145
85 1 -0.032484375 -0.00125 0.012403125 2.61347179336e-256
86 1 -0.032484375 -0.00125 0.013584375 0.0
87 1 -0.032484375 -0.00125 0.014765625 2.34778798776e-216
88 1 -0.032484375 -0.00125 0.015946875 3.66461119459e-207
89 1 -0.032484375 -0.00125 0.017128125 3.214412748e-147
90 1 -0.032484375 -0.00125 0.018309375 9.33677328762e-157
91 1 -0.031303125 -0.00125 -0.019490625 0.0
92 1 -0.031303125 -0.00125 -0.018309375 0.0
93 1 -0.031303125 -0.00125 -0.017128125 0.0
94 1 -0.031303125 -0.00125 -0.015946875 0.0
95 1 -0.031303125 -0.00125 -0.014765625 5.15080374925e-150
96 1 -0.031303125 -0.00125 -0.013584375 2.49917772476e-181
97 1 -0.031303125 -0.00125 -0.012403125 5.16171339029e-241
98 1 -0.031303125 -0.00125 -0.011221875 0.0
99 1 -0.031303125 -0.00125 -0.010040625 0.0
100 1 -0.031303125 -0.00125 -0.008859375 0.0
101 1 -0.031303125 -0.00125 -0.007678125 0.0
102 1 -0.031303125 -0.00125 -0.006496875 0.0
103 1 -0.031303125 -0.00125 -0.005315625 0.0
104 1 -0.031303125 -0.00125 -0.004134375 0.0
105 1 -0.031303125 -0.00125 -0.002953125 0.0
106 1 -0.031303125 -0.00125 -0.001771875 0.0
107 1 -0.031303125 -0.00125 -0.000590625 0.0
108 1 -0.031303125 -0.00125 0.000590625 0.0
109 1 -0.031303125 -0.00125 0.001771875 0.0
110 1 -0.031303125 -0.00125 0.002953125 0.0
111 1 -0.031303125 -0.00125 0.004134375 1.07789748958e-286
112 1 -0.031303125 -0.00125 0.005315625 1.65029608014e-164
113 1 -0.031303125 -0.00125 0.006496875 1.71472546527e-201
114 1 -0.031303125 -0.00125 0.007678125 0.0
115 1 -0.031303125 -0.00125 0.008859375 0.0
116 1 -0.031303125 -0.00125 0.010040625 0.0
117 1 -0.031303125 -0.00125 0.011221875 0.0
118 1 -0.031303125 -0.00125 0.012403125 0.0
119 1 -0.031303125 -0.00125 0.013584375 0.0
120 1 -0.031303125 -0.00125 0.014765625 0.0
121 1 -0.031303125 -0.00125 0.015946875 0.0
122 1 -0.031303125 -0.00125 0.017128125 0.0
123 1 -0.031303125 -0.00125 0.018309375 0.0
124 1 -0.031303125 -0.00125 0.019490625 0.0
125 1 -0.030121875 -0.00125 -0.020671875 0.0
126 1 -0.030121875 -0.00125 -0.019490625 0.0
127 1 -0.030121875 -0.00125 -0.018309375 0.0
128 1 -0.030121875 -0.00125 -0.017128125 0.0
129 1 -0.030121875 -0.00125 -0.015946875 0.0
130 1 -0.030121875 -0.00125 -0.014765625 9.07167833477e-182
131 1 -0.030121875 -0.00125 -0.013584375 1.6062197667e-285
132 1 -0.030121875 -0.00125 -0.012403125 6.36265152341e-139
133 1 -0.030121875 -0.00125 -0.011221875 0.0
134 1 -0.030121875 -0.00125 -0.010040625 0.0
135 1 -0.030121875 -0.00125 -0.008859375 0.0
136 1 -0.030121875 -0.00125 -0.007678125 0.0
137 1 -0.030121875 -0.00125 -0.006496875 0.0
138 1 -0.030121875 -0.00125 -0.005315625 0.0
139 1 -0.030121875 -0.00125 -0.004134375 0.0
140 1 -0.030121875 -0.00125 -0.002953125 0.0
141 1 -0.030121875 -0.00125 -0.001771875 0.0
142 1 -0.030121875 -0.00125 -0.000590625 0.0
143 1 -0.030121875 -0.00125 0.000590625 1.89754696054e-299
144 1 -0.030121875 -0.00125 0.001771875 7.84265850236e-222
145 1 -0.030121875 -0.00125 0.002953125 2.99064609951e-210
146 1 -0.030121875 -0.00125 0.004134375 1.21076548926e-189
147 1 -0.030121875 -0.00125 0.005315625 4.71469955585e-142
148 1 -0.030121875 -0.00125 0.006496875 9.08865040166e-307
149 1 -0.030121875 -0.00125 0.007678125 0.0
150 1 -0.030121875 -0.00125 0.008859375 0.0
151 1 -0.030121875 -0.00125 0.010040625 0.0
152 1 -0.030121875 -0.00125 0.011221875 0.0
153 1 -0.030121875 -0.00125 0.012403125 0.0
154 1 -0.030121875 -0.00125 0.013584375 0.0
155 1 -0.030121875 -0.00125 0.014765625 0.0
156 1 -0.030121875 -0.00125 0.015946875 0.0
157 1 -0.030121875 -0.00125 0.017128125 0.0
158 1 -0.030121875 -0.00125 0.018309375 0.0
159 1 -0.030121875 -0.00125 0.019490625 0.0
160 1 -0.030121875 -0.00125 0.020671875 0.0
161 1 -0.028940625 -0.00125 -0.021853125 0.0
162 1 -0.028940625 -0.00125 -0.020671875 0.0
163 1 -0.028940625 -0.00125 -0.019490625 0.0
164 1 -0.028940625 -0.00125 -0.018309375 0.0
165 1 -0.028940625 -0.00125 -0.017128125 0.0
166 1 -0.028940625 -0.00125 -0.015946875 0.0
167 1 -0.028940625 -0.00125 -0.014765625 0.0
168 1 -0.028940625 -0.00125 -0.013584375 0.0
169 1 -0.028940625 -0.00125 -0.012403125 0.0
170 1 -0.028940625 -0.00125 -0.011221875 0.0
171 1 -0.028940625 -0.00125 -0.010040625 0.0
172 1 -0.028940625 -0.00125 -0.008859375 0.0
173 1 -0.028940625 -0.00125 -0.007678125 2.68527533725e-263
174 1 -0.028940625 -0.00125 -0.006496875 1.8092722203e-175
175 1 -0.028940625 -0.00125 -0.005315625 5.6765994936e-223
176 1 -0.028940625 -0.00125 -0.004134375 0.0
177 1 -0.028940625 -0.00125 -0.002953125 0.0
178 1 -0.028940625 -0.00125 -0.001771875 0.0
179 1 -0.028940625 -0.00125 -0.000590625 8.66332740176e-116
180 1 -0.028940625 -0.00125 0.000590625 3.57042764366e-173
181 1 -0.028940625 -0.00125 0.001771875 1.0641869498e-196
182 1 -0.028940625 -0.00125 0.002953125 3.82554958654e-182
183 1 -0.028940625 -0.00125 0.004134375 1.73860991963e-250
184 1 -0.028940625 -0.00125 0.005315625 3.60118114561e-254
185 1 -0.028940625 -0.00125 0.006496875 0.0
186 1 -0.028940625 -0.00125 0.007678125 0.0
187 1 -0.028940625 -0.00125 0.008859375 0.0
188 1 -0.028940625 -0.00125 0.010040625 0.0
189 1 -0.028940625 -0.00125 0.011221875 0.0
190 1 -0.028940625 -0.00125 0.012403125 0.0
191 1 -0.028940625 -0.00125 0.013584375 0.0
192 1 -0.028940625 -0.00125 0.014765625 0.0
193 1 -0.028940625 -0.00125 0.015946875 0.0
194 1 -0.028940625 -0.00125 0.017128125 0.0
195 1 -0.028940625 -0.00125 0.018309375 0.0
196 1 -0.028940625 -0.00125 0.019490625 0.0
197 1 -0.028940625 -0.00125 0.020671875 1.33820806229e-227
198 1 -0.028940625 -0.00125 0.021853125 4.27486048864e-166
199 1 -0.027759375 -0.00125 -0.024215625 0.0
200 1 -0.027759375 -0.00125 -0.023034375 0.0
201 1 -0.027759375 -0.00125 -0.021853125 0.0
202 1 -0.027759375 -0.00125 -0.020671875 0.0
203 1 -0.027759375 -0.00125 -0.019490625 0.0
204 1 -0.027759375 -0.00125 -0.018309375 0.0
205 1 -0.027759375 -0.00125 -0.017128125 0.0
206 1 -0.027759375 -0.00125 -0.015946875 0.0
207 1 -0.027759375 -0.00125 -0.014765625 0.0
208 1 -0.027759375 -0.00125 -0.013584375 0.0
209 1 -0.027759375 -0.00125 -0.012403125 8.50702275584e-151
210 1 -0.027759375 -0.00125 -0.011221875 2.62517165745e-293
211 1 -0.027759375 -0.00125 -0.010040625 0.0
212 1 -0.027759375 -0.00125 -0.008859375 1.02072771544e-290
213 1 -0.027759375 -0.00125 -0.007678125 6.38584649331e-193
214 1 -0.027759375 -0.00125 -0.006496875 2.17995978262e-106
215 1 -0.027759375 -0.00125 -0.005315625 1.97398979319e-121
216 1 -0.027759375 -0.00125 -0.004134375 1.42349284484e-249
217 1 -0.027759375 -0.00125 -0.002953125 3.85055277141e-89
218 1 -0.027759375 -0.00125 -0.001771875 1.42906039619e-221
219 1 -0.027759375 -0.00125 -0.000590625 1.05835829975e-31
220 1 -0.027759375 -0.00125 0.000590625 1.07016413969e-39
221 1 -0.027759375 -0.00125 0.001771875 1.52197763052e-61
222 1 -0.027759375 -0.00125 0.002953125 3.03087750794e-57
223 1 -0.027759375 -0.00125 0.004134375 2.31924638233e-55
224 1 -0.027759375 -0.00125 0.005315625 1.65683734846e-72
225 1 -0.027759375 -0.00125 0.006496875 3.49306049298e-221
226 1 -0.027759375 -0.00125 0.007678125 2.73383167756e-242
227 1 -0.027759375 -0.00125 0.008859375 2.28064149813e-62
228 1 -0.027759375 -0.00125 0.010040625 1.2338108277e-80
229 1 -0.027759375 -0.00125 0.011221875 0.0
230 1 -0.027759375 -0.00125 0.012403125 0.0
231 1 -0.027759375 -0.00125 0.013584375 0.0
232 1 -0.027759375 -0.00125 0.014765625 0.0
233 1 -0.027759375 -0.00125 0.015946875 0.0
234 1 -0.027759375 -0.00125 0.017128125 0.0
235 1 -0.027759375 -0.00125 0.018309375 8.60883339336e-294
236 1 -0.027759375 -0.00125 0.019490625 3.98751068593e-174
237 1 -0.027759375 -0.00125 0.020671875 6.22587823837e-165
238 1 -0.027759375 -0.00125 0.021853125 1.59297086608e-58
239 1 -0.027759375 -0.00125 0.023034375 2.62878367371e-284
240 1 -0.027759375 -0.00125 0.024215625 0.0
241 1 -0.026578125 -0.00125 -0.026578125 0.0
242 1 -0.026578125 -0.00125 -0.025396875 0.0
243 1 -0.026578125 -0.00125 -0.024215625 0.0
244 1 -0.026578125 -0.00125 -0.023034375 0.0
245 1 -0.026578125 -0.00125 -0.021853125 0.0
246 1 -0.026578125 -0.00125 -0.020671875 0.0
247 1 -0.026578125 -0.00125 -0.019490625 1.25091491438e-132
248 1 -0.026578125 -0.00125 -0.018309375 4.0520111936e-221
249 1 -0.026578125 -0.00125 -0.017128125 0.0
250 1 -0.026578125 -0.00125 -0.015946875 5.04981808056e-285
251 1 -0.026578125 -0.00125 -0.014765625 1.7992652034e-294
252 1 -0.026578125 -0.00125 -0.013584375 2.73137305247e-157
253 1 -0.026578125 -0.00125 -0.012403125 4.2428931015e-95
254 1 -0.026578125 -0.00125 -0.011221875 4.3889466865e-80
255 1 -0.026578125 -0.00125 -0.010040625 5.00270561523e-261
256 1 -0.026578125 -0.00125 -0.008859375 2.41823911241e-180
257 1 -0.026578125 -0.00125 -0.007678125 8.14274906796e-42
258 1 -0.026578125 -0.00125 -0.006496875 1.3492820654e-44
259 1 -0.026578125 -0.00125 -0.005315625 6.05194889743e-37
260 1 -0.026578125 -0.00125 -0.004134375 2.42228927609e-56
261 1 -0.026578125 -0.00125 -0.002953125 1.99292695576e-64
262 1 -0.026578125 -0.00125 -0.001771875 3.35171479684e-30
263 1 -0.026578125 -0.00125 -0.000590625 7.2536199442e-17
264 1 -0.026578125 -0.00125 0.000590625 1.28790902288e-17
265 1 -0.026578125 -0.00125 0.001771875 2.75893662905e-14
266 1 -0.026578125 -0.00125 0.002953125 5.49147405533e-18
267 1 -0.026578125 -0.00125 0.004134375 2.6128212582e-31
268 1 -0.026578125 -0.00125 0.005315625 2.33763480541e-29
269 1 -0.026578125 -0.00125 0.006496875 1.28702687256e-46
270 1 -0.026578125 -0.00125 0.007678125 3.33913999906e-27
271 1 -0.026578125 -0.00125 0.008859375 1.83308001169e-43
272 1 -0.026578125 -0.00125 0.010040625 1.15528214247e-56
273 1 -0.026578125 -0.00125 0.011221875 3.13522151414e-105
274 1 -0.026578125 -0.00125 0.012403125 3.03934081043e-297
275 1 -0.026578125 -0.00125 0.013584375 0.0
276 1 -0.026578125 -0.00125 0.014765625 0.0
277 1 -0.026578125 -0.00125 0.015946875 0.0
278 1 -0.026578125 -0.00125 0.017128125 0.0
279 1 -0.026578125 -0.00125 0.018309375 6.33104341048e-135
280 1 -0.026578125 -0.00125 0.019490625 2.04410736487e-103
281 1 -0.026578125 -0.00125 0.020671875 1.95810655833e-189
282 1 -0.026578125 -0.00125 0.021853125 0.0
283 1 -0.026578125 -0.00125 0.023034375 0.0
284 1 -0.026578125 -0.00125 0.024215625 0.0
285 1 -0.026578125 -0.00125 0.025396875 0.0
286 1 -0.026578125 -0.00125 0.026578125 0.0
287 1 -0.025396875 -0.00125 -0.026578125 0.0
288 1 -0.025396875 -0.00125 -0.025396875 0.0
289 1 -0.025396875 -0.00125 -0.024215625 0.0
290 1 -0.025396875 -0.00125 -0.023034375 0.0
291 1 -0.025396875 -0.00125 -0.021853125 0.0
292 1 -0.025396875 -0.00125 -0.020671875 0.0
293 1 -0.025396875 -0.00125 -0.019490625 7.65884484018e-160
294 1 -0.025396875 -0.00125 -0.018309375 1.5785594149e-240
295 1 -0.025396875 -0.00125 -0.017128125 5.7538866332e-212
296 1 -0.025396875 -0.00125 -0.015946875 2.10600560876e-183
297 1 -0.025396875 -0.00125 -0.014765625 1.97087367502e-49
298 1 -0.025396875 -0.00125 -0.013584375 2.12950647263e-113
299 1 -0.025396875 -0.00125 -0.012403125 4.37074587381e-67
300 1 -0.025396875 -0.00125 -0.011221875 9.39691456013e-116
301 1 -0.025396875 -0.00125 -0.010040625 4.72602910792e-79
302 1 -0.025396875 -0.00125 -0.008859375 9.39671757503e-115
303 1 -0.025396875 -0.00125 -0.007678125 4.15793115561e-41
304 1 -0.025396875 -0.00125 -0.006496875 4.95643493553e-87
305 1 -0.025396875 -0.00125 -0.005315625 3.14933713748e-32
306 1 -0.025396875 -0.00125 -0.004134375 8.91287328429e-53
307 1 -0.025396875 -0.00125 -0.002953125 1.61673143324e-24
308 1 -0.025396875 -0.00125 -0.001771875 1.08048845481e-17
309 1 -0.025396875 -0.00125 -0.000590625 5.67650942832e-27
310 1 -0.025396875 -0.00125 0.000590625 2.07145893527e-14
311 1 -0.025396875 -0.00125 0.001771875 1.78192321676e-14
312 1 -0.025396875 -0.00125 0.002953125 9.59063948387e-18
313 1 -0.025396875 -0.00125 0.004134375 3.56438923813e-12
314 1 -0.025396875 -0.00125 0.005315625 1.25721857092e-13
315 1 -0.025396875 -0.00125 0.006496875 2.11843321005e-23
316 1 -0.025396875 -0.00125 0.007678125 5.41353844313e-18
317 1 -0.025396875 -0.00125 0.008859375 4.88410534337e-26
318 1 -0.025396875 -0.00125 0.010040625 2.13532850113e-19
319 1 -0.025396875 -0.00125 0.011221875 2.00638905935e-28
320 1 -0.025396875 -0.00125 0.012403125 7.08397097361e-68
321 1 -0.025396875 -0.00125 0.013584375 6.80271795494e-81
322 1 -0.025396875 -0.00125 0.014765625 0.0
323 1 -0.025396875 -0.00125 0.015946875 0.0
324 1 -0.025396875 -0.00125 0.017128125 2.93612743072e-248
325 1 -0.025396875 -0.00125 0.018309375 2.13170992523e-131
326 1 -0.025396875 -0.00125 0.019490625 3.19939339755e-121
327 1 -0.025396875 -0.00125 0.020671875 6.09797022388e-285
328 1 -0.025396875 -0.00125 0.021853125 0.0
329 1 -0.025396875 -0.00125 0.023034375 0.0
330 1 -0.025396875 -0.00125 0.024215625 0.0
331 1 -0.025396875 -0.00125 0.025396875 0.0
332 1 -0.025396875 -0.00125 0.026578125 0.0
333 1 -0.024215625 -0.00125 -0.027759375 0.0
334 1 -0.024215625 -0.00125 -0.026578125 0.0
335 1 -0.024215625 -0.00125 -0.025396875 0.0
336 1 -0.024215625 -0.00125 -0.024215625 0.0
337 1 -0.024215625 -0.00125 -0.023034375 0.0
338 1 -0.024215625 -0.00125 -0.021853125 0.0
339 1 -0.024215625 -0.00125 -0.020671875 0.0
340 1 -0.024215625 -0.00125 -0.019490625 5.39791003374e-103
341 1 -0.024215625 -0.00125 -0.018309375 1.36203709696e-158
342 1 -0.024215625 -0.00125 -0.017128125 6.74836545809e-224
343 1 -0.024215625 -0.00125 -0.015946875 2.86133532763e-87
344 1 -0.024215625 -0.00125 -0.014765625 9.61380139029e-43
345 1 -0.024215625 -0.00125 -0.013584375 1.7160444934e-45
346 1 -0.024215625 -0.00125 -0.012403125 1.69311353368e-37
347 1 -0.024215625 -0.00125 -0.011221875 9.97157361835e-53
348 1 -0.024215625 -0.00125 -0.010040625 1.12123734134e-47
349 1 -0.024215625 -0.00125 -0.008859375 9.83229763298e-60
350 1 -0.024215625 -0.00125 -0.007678125 1.2227099597e-48
351 1 -0.024215625 -0.00125 -0.006496875 2.28483484144e-26
352 1 -0.024215625 -0.00125 -0.005315625 4.73631891674e-13
353 1 -0.024215625 -0.00125 -0.004134375 1.83146437082e-07
354 1 -0.024215625 -0.00125 -0.002953125 1.99367414095e-08
355 1 -0.024215625 -0.00125 -0.001771875 2.06379506298e-10
356 1 -0.024215625 -0.00125 -0.000590625 1.21263896569e-11
357 1 -0.024215625 -0.00125 0.000590625 4.08247221932e-07
358 1 -0.024215625 -0.00125 0.001771875 1.16338678338e-07
359 1 -0.024215625 -0.00125 0.002953125 9.82195094362e-06
360 1 -0.024215625 -0.00125 0.004134375 1.99846645784e-06
361 1 -0.024215625 -0.00125 0.005315625 1.3008323203e-08
362 1 -0.024215625 -0.00125 0.006496875 4.67611860465e-19
363 1 -0.024215625 -0.00125 0.007678125 4.28640085305e-15
364 1 -0.024215625 -0.00125 0.008859375 3.07618470314e-18
365 1 -0.024215625 -0.00125 0.010040625 2.56751389083e-13
366 1 -0.024215625 -0.00125 0.011221875 2.08037360466e-12
367 1 -0.024215625 -0.00125 0.012403125 2.08921385182e-13
368 1 -0.024215625 -0.00125 0.013584375 3.93551819247e-32
369 1 -0.024215625 -0.00125 0.014765625 3.89146091089e-54
370 1 -0.024215625 -0.00125 0.015946875 1.42295451783e-158
371 1 -0.024215625 -0.00125 0.017128125 1.12391699656e-114
372 1 -0.024215625 -0.00125 0.018309375 6.56282465683e-74
373 1 -0.024215625 -0.00125 0.019490625 3.88416396978e-184
374 1 -0.024215625 -0.00125 0.020671875 0.0
375 1 -0.024215625 -0.00125 0.021853125 0.0
376 1 -0.024215625 -0.00125 0.023034375 0.0
377 1 -0.024215625 -0.00125 0.024215625 0.0
378 1 -0.024215625 -0.00125 0.025396875 0.0
379 1 -0.024215625 -0.00125 0.026578125 0.0
380 1 -0.024215625 -0.00125 0.027759375 0.0
381 1 -0.023034375 -0.00125 -0.027759375 0.0
382 1 -0.023034375 -0.00125 -0.026578125 0.0
383 1 -0.023034375 -0.00125 -0.025396875 0.0
384 1 -0.023034375 -0.00125 -0.024215625 0.0
385 1 -0.023034375 -0.00125 -0.023034375 0.0
386 1 -0.023034375 -0.00125 -0.021853125 2.29323555216e-127
387 1 -0.023034375 -0.00125 -0.020671875 1.57194340855e-100
388 1 -0.023034375 -0.00125 -0.019490625 5.38955359293e-99
389 1 -0.023034375 -0.00125 -0.018309375 4.82137494724e-115
390 1 -0.023034375 -0.00125 -0.017128125 8.18679071382e-63
391 1 -0.023034375 -0.00125 -0.015946875 6.93208083324e-59
392 1 -0.023034375 -0.00125 -0.014765625 5.60528334528e-35
393 1 -0.023034375 -0.00125 -0.013584375 2.66090406251e-37
394 1 -0.023034375 -0.00125 -0.012403125 3.1098070238e-33
395 1 -0.023034375 -0.00125 -0.011221875 1.96178114219e-39
396 1 -0.023034375 -0.00125 -0.010040625 8.0132251726e-54
397 1 -0.023034375 -0.00125 -0.008859375 1.82446023329e-60
398 1 -0.023034375 -0.00125 -0.007678125 2.71587654938e-23
399 1 -0.023034375 -0.00125 -0.006496875 1.09979290586e-14
400 1 -0.023034375 -0.00125 -0.005315625 6.71605829541e-13
401 1 -0.023034375 -0.00125 -0.004134375 2.05496415186e-16
402 1 -0.023034375 -0.00125 -0.002953125 3.60046588147e-06
403 1 -0.023034375 -0.00125 -0.001771875 2.21464338842e-07
404 1 -0.023034375 -0.00125 -0.000590625 7.92975690112e-06
405 1 -0.023034375 -0.00125 0.000590625 0.000133479182903
406 1 -0.023034375 -0.00125 0.001771875 0.00116622410904
407 1 -0.023034375 -0.00125 0.002953125 0.000389421466279
408 1 -0.023034375 -0.00125 0.004134375 3.53111833238e-06
409 1 -0.023034375 -0.00125 0.005315625 2.90012704583e-12
410 1 -0.023034375 -0.00125 0.006496875 1.64334197943e-06
411 1 -0.023034375 -0.00125 0.007678125 2.44893271927e-07
412 1 -0.023034375 -0.00125 0.008859375 3.49267076301e-10
413 1 -0.023034375 -0.00125 0.010040625 7.63255460572e-17
414 1 -0.023034375 -0.00125 0.011221875 1.22749874418e-16
415 1 -0.023034375 -0.00125 0.012403125 6.07275632474e-20
416 1 -0.023034375 -0.00125 0.013584375 7.00866455148e-32
417 1 -0.023034375 -0.00125 0.014765625 1.58773594399e-47
418 1 -0.023034375 -0.00125 0.015946875 1.16414501754e-47
419 1 -0.023034375 -0.00125 0.017128125 9.54735100271e-117
420 1 -0.023034375 -0.00125 0.018309375 1.00234114044e-85
421 1 -0.023034375 -0.00125 0.019490625 3.04951416509e-90
422 1 -0.023034375 -0.00125 0.020671875 1.84043092958e-165
423 1 -0.023034375 -0.00125 0.021853125 0.0
424 1 -0.023034375 -0.00125 0.023034375 0.0
425 1 -0.023034375 -0.00125 0.024215625 0.0
426 1 -0.023034375 -0.00125 0.025396875 0.0
427 1 -0.023034375 -0.00125 0.026578125 0.0
428 1 -0.023034375 -0.00125 0.027759375 2.94591950374e-111
429 1 -0.021853125 -0.00125 -0.028940625 0.0
430 1 -0.021853125 -0.00125 -0.027759375 0.0
431 1 -0.021853125 -0.00125 -0.026578125 0.0
432 1 -0.021853125 -0.00125 -0.025396875 0.0
433 1 -0.021853125 -0.00125 -0.024215625 0.0
434 1 -0.021853125 -0.00125 -0.023034375 0.0
435 1 -0.021853125 -0.00125 -0.021853125 2.27583188881e-35
436 1 -0.021853125 -0.00125 -0.020671875 9.18301514597e-37
437 1 -0.021853125 -0.00125 -0.019490625 6.4529275405e-75
438 1 -0.021853125 -0.00125 -0.018309375 8.69577389408e-100
439 1 -0.021853125 -0.00125 -0.017128125 3.13881378174e-37
440 1 -0.021853125 -0.00125 -0.015946875 4.73629321081e-18
441 1 -0.021853125 -0.00125 -0.014765625 3.0972839047e-17
442 1 -0.021853125 -0.00125 -0.013584375 8.70449032683e-21
443 1 -0.021853125 -0.00125 -0.012403125 1.02302421699e-16
444 1 -0.021853125 -0.00125 -0.011221875 2.72985615391e-18
445 1 -0.021853125 -0.00125 -0.010040625 1.78227144412e-28
446 1 -0.021853125 -0.00125 -0.008859375 1.58100448725e-23
447 1 -0.021853125 -0.00125 -0.007678125 2.22863955574e-09
448 1 -0.021853125 -0.00125 -0.006496875 1.0860316804e-11
449 1 -0.021853125 -0.00125 -0.005315625 2.45025521135e-12
450 1 -0.021853125 -0.00125 -0.004134375 6.02917430586e-07
451 1 -0.021853125 -0.00125 -0.002953125 4.91025874231e-07
452 1 -0.021853125 -0.00125 -0.001771875 9.71349943734e-06
453 1 -0.021853125 -0.00125 -0.000590625 0.0016242983401
454 1 -0.021853125 -0.00125 0.000590625 0.00190869461171
455 1 -0.021853125 -0.00125 0.001771875 0.000531635276604
456 1 -0.021853125 -0.00125 0.002953125 0.000276207056295
457 1 -0.021853125 -0.00125 0.004134375 3.19109969089e-06
458 1 -0.021853125 -0.00125 0.005315625 2.09104488135e-06
459 1 -0.021853125 -0.00125 0.006496875 5.72185871196e-07
460 1 -0.021853125 -0.00125 0.007678125 7.14486966232e-09
461 1 -0.021853125 -0.00125 0.008859375 1.39021353093e-06
462 1 -0.021853125 -0.00125 0.010040625 2.07630075475e-11
463 1 -0.021853125 -0.00125 0.011221875 1.16225586059e-13
464 1 -0.021853125 -0.00125 0.012403125 1.63791294604e-12
465 1 -0.021853125 -0.00125 0.013584375 2.29077743422e-24
466 1 -0.021853125 -0.00125 0.014765625 4.62418958703e-17
467 1 -0.021853125 -0.00125 0.015946875 1.81047659867e-20
468 1 -0.021853125 -0.00125 0.017128125 2.17636390894e-36
469 1 -0.021853125 -0.00125 0.018309375 1.03572380322e-65
470 1 -0.021853125 -0.00125 0.019490625 3.9363338209e-58
471 1 -0.021853125 -0.00125 0.020671875 7.62797111876e-95
472 1 -0.021853125 -0.00125 0.021853125 2.81172625549e-243
473 1 -0.021853125 -0.00125 0.023034375 0.0
474 1 -0.021853125 -0.00125 0.024215625 0.0
475 1 -0.021853125 -0.00125 0.025396875 0.0
476 1 -0.021853125 -0.00125 0.026578125 1.67055095146e-127
477 1 -0.021853125 -0.00125 0.027759375 2.1855289238e-64
478 1 -0.021853125 -0.00125 0.028940625 3.61642261909e-106
479 1 -0.020671875 -0.00125 -0.030121875 0.0
480 1 -0.020671875 -0.00125 -0.028940625 0.0
481 1 -0.020671875 -0.00125 -0.027759375 0.0
482 1 -0.020671875 -0.00125 -0.026578125 0.0
483 1 -0.020671875 -0.00125 -0.025396875 0.0
484 1 -0.020671875 -0.00125 -0.024215625 1.57760387117e-272
485 1 -0.020671875 -0.00125 -0.023034375 6.83643038752e-129
486 1 -0.020671875 -0.00125 -0.021853125 1.50116382272e-24
487 1 -0.020671875 -0.00125 -0.020671875 4.94553796515e-34
488 1 -0.020671875 -0.00125 -0.019490625 3.56416721896e-45
489 1 -0.020671875 -0.00125 -0.018309375 2.63298424553e-36
490 1 -0.020671875 -0.00125 -0.017128125 5.73544098248e-16
491 1 -0.020671875 -0.00125 -0.015946875 7.62277053403e-16
492 1 -0.020671875 -0.00125 -0.014765625 2.56475290748e-10
493 1 -0.020671875 -0.00125 -0.013584375 2.01201361861e-21
494 1 -0.020671875 -0.00125 -0.012403125 9.04539458183e-19
495 1 -0.020671875 -0.00125 -0.011221875 1.27159748334e-25
496 1 -0.020671875 -0.00125 -0.010040625 2.06563478839e-17
497 1 -0.020671875 -0.00125 -0.008859375 6.38470032367e-20
498 1 -0.020671875 -0.00125 -0.007678125 1.77706939092e-12
499 1 -0.020671875 -0.00125 -0.006496875 3.05584813559e-13
500 1 -0.020671875 -0.00125 -0.005315625 3.21555712266e-17
501 1 -0.020671875 -0.00125 -0.004134375 6.66919594242e-06
502 1 -0.020671875 -0.00125 -0.002953125 6.55889472252e-10
503 1 -0.020671875 -0.00125 -0.001771875 7.66655802955e-06
504 1 -0.020671875 -0.00125 -0.000590625 0.000255631637019
505 1 -0.020671875 -0.00125 0.000590625 0.000311137373059
506 1 -0.020671875 -0.00125 0.001771875 2.21608680046e-06
507 1 -0.020671875 -0.00125 0.002953125 2.24549996439e-07
508 1 -0.020671875 -0.00125 0.004134375 2.62553695075e-09
509 1 -0.020671875 -0.00125 0.005315625 4.69836417983e-06
510 1 -0.020671875 -0.00125 0.006496875 9.65309126268e-08
511 1 -0.020671875 -0.00125 0.007678125 4.15864343307e-08
512 1 -0.020671875 -0.00125 0.008859375 5.5907732437e-07
513 1 -0.020671875 -0.00125 0.010040625 8.6417838669e-12
514 1 -0.020671875 -0.00125 0.011221875 3.35050264852e-11
515 1 -0.020671875 -0.00125 0.012403125 5.30784252313e-12
516 1 -0.020671875 -0.00125 0.013584375 1.45671875886e-19
517 1 -0.020671875 -0.00125 0.014765625 1.3769349046e-14
518 1 -0.020671875 -0.00125 0.015946875 7.45505553392e-11
519 1 -0.020671875 -0.00125 0.017128125 5.99617024489e-15
520 1 -0.020671875 -0.00125 0.018309375 1.11892762918e-23
521 1 -0.020671875 -0.00125 0.019490625 8.04999234162e-21
522 1 -0.020671875 -0.00125 0.020671875 5.33863973017e-52
523 1 -0.020671875 -0.00125 0.021853125 1.88568226957e-94
524 1 -0.020671875 -0.00125 0.023034375 1.84245569442e-189
525 1 -0.020671875 -0.00125 0.024215625 1.86659961062e-245
526 1 -0.020671875 -0.00125 0.025396875 9.6127694043e-121
527 1 -0.020671875 -0.00125 0.026578125 3.25624856986e-108
528 1 -0.020671875 -0.00125 0.027759375 4.88170557607e-64
529 1 -0.020671875 -0.00125 0.028940625 0.0
530 1 -0.020671875 -0.00125 0.030121875 0.0
531 1 -0.019490625 -0.00125 -0.031303125 2.37339014587e-222
532 1 -0.019490625 -0.00125 -0.030121875 0.0
533 1 -0.019490625 -0.00125 -0.028940625 0.0
534 1 -0.019490625 -0.00125 -0.027759375 0.0
535 1 -0.019490625 -0.00125 -0.026578125 2.33917265719e-113
536 1 -0.019490625 -0.00125 -0.025396875 2.67038162094e-60
537 1 -0.019490625 -0.00125 -0.024215625 1.16521051515e-49
538 1 -0.019490625 -0.00125 -0.023034375 2.31023180374e-48
539 1 -0.019490625 -0.00125 -0.021853125 1.13142206509e-37
540 1 -0.019490625 -0.00125 -0.020671875 1.50372243689e-28
541 1 -0.019490625 -0.00125 -0.019490625 2.70354740159e-16
542 1 -0.019490625 -0.00125 -0.018309375 1.26717931317e-11
543 1 -0.019490625 -0.00125 -0.017128125 5.01258953981e-10
544 1 -0.019490625 -0.00125 -0.015946875 8.47824180087e-09
545 1 -0.019490625 -0.00125 -0.014765625 5.23233439514e-08
546 1 -0.019490625 -0.00125 -0.013584375 8.33725992926e-13
547 1 -0.019490625 -0.00125 -0.012403125 3.80834962987e-22
548 1 -0.019490625 -0.00125 -0.011221875 2.78275867841e-18
549 1 -0.019490625 -0.00125 -0.010040625 1.93474772056e-11
550 1 -0.019490625 -0.00125 -0.008859375 3.33161567566e-13
551 1 -0.019490625 -0.00125 -0.007678125 5.53592867574e-11
552 1 -0.019490625 -0.00125 -0.006496875 6.97230950817e-11
553 1 -0.019490625 -0.00125 -0.005315625 8.13536118234e-07
554 1 -0.019490625 -0.00125 -0.004134375 3.47321410762e-10
555 1 -0.019490625 -0.00125 -0.002953125 8.64642107065e-14
556 1 -0.019490625 -0.00125 -0.001771875 9.09430179597e-10
557 1 -0.019490625 -0.00125 -0.000590625 1.11187781129e-06
558 1 -0.019490625 -0.00125 0.000590625 6.93850326997e-06
559 1 -0.019490625 -0.00125 0.001771875 7.30397042522e-07
560 1 -0.019490625 -0.00125 0.002953125 6.28401148584e-09
561 1 -0.019490625 -0.00125 0.004134375 1.27151248637e-07
562 1 -0.019490625 -0.00125 0.005315625 2.94302848393e-05
563 1 -0.019490625 -0.00125 0.006496875 3.07943143086e-05
564 1 -0.019490625 -0.00125 0.007678125 5.64661321381e-05
565 1 -0.019490625 -0.00125 0.008859375 1.17074297255e-05
566 1 -0.019490625 -0.00125 0.010040625 1.7434758652e-07