ITEM: TIMESTEP
0
ITEM: NUMBER OF ATOMS
3080
ITEM: BOX BOUNDS ss ss ss
-3.7007399999999996e-02 3.7007399999999996e-02
-2.0002499999999999e-03 2.5000000000000004e-07
-3.7007399999999996e-02 3.7007399999999996e-02
ITEM: ATOMS id type x y z c_1
0 1 -0.037209375 -0.00125 -0.000590625 0.909140838096
1 1 -0.036028125 -0.00125 -0.007678125 0.000163509089279
2 1 -0.036028125 -0.00125 -0.006496875 1.06296311563e-06
3 1 -0.036028125 -0.00125 -0.005315625 0.000756759526706
4 1 -0.036028125 -0.00125 -0.004134375 4.88005281013e-07
5 1 -0.036028125 -0.00125 -0.002953125 0.00691587754211
6 1 -0.036028125 -0.00125 -0.001771875 0.000105110593132
7 1 -0.036028125 -0.00125 -0.000590625 0.0366588815939
8 1 -0.036028125 -0.00125 0.000590625 8.68456365442e-05
9 1 -0.036028125 -0.00125 0.001771875 0.00671113844877
10 1 -0.036028125 -0.00125 0.002953125 9.43287085657e-06
11 1 -0.036028125 -0.00125 0.004134375 0.000399736724259
12 1 -0.036028125 -0.00125 0.005315625 1.70447376498e-13
13 1 -0.036028125 -0.00125 0.006496875 0.000156811196622
14 1 -0.036028125 -0.00125 0.007678125 1.74598151693e-07
15 1 -0.034846875 -0.00125 -0.011221875 6.96711871238e-06
16 1 -0.034846875 -0.00125 -0.010040625 2.16104483105e-05
17 1 -0.034846875 -0.00125 -0.008859375 0.000172146561369
18 1 -0.034846875 -0.00125 -0.007678125 4.21856406956e-09
19 1 -0.034846875 -0.00125 -0.006496875 1.33318353267e-08
20 1 -0.034846875 -0.00125 -0.005315625 2.03038026922e-12
21 1 -0.034846875 -0.00125 -0.004134375 1.26202800277e-18
22 1 -0.034846875 -0.00125 -0.002953125 4.00056610912e-05
23 1 -0.034846875 -0.00125 -0.001771875 0.00899514141169
24 1 -0.034846875 -0.00125 -0.000590625 9.45964032933e-05
25 1 -0.034846875 -0.00125 0.000590625 0.00852371372262
26 1 -0.034846875 -0.00125 0.001771875 2.13769830423e-08
27 1 -0.034846875 -0.00125 0.002953125 2.17929991579e-25
28 1 -0.034846875 -0.00125 0.004134375 3.22326290821e-30
29 1 -0.034846875 -0.00125 0.005315625 2.12415935427e-24
30 1 -0.034846875 -0.00125 0.006496875 4.22408272639e-19
31 1 -0.034846875 -0.00125 0.007678125 4.29177900365e-12
32 1 -0.034846875 -0.00125 0.008859375 1.56145516262e-05
33 1 -0.034846875 -0.00125 0.010040625 1.90816341946e-05
34 1 -0.034846875 -0.00125 0.011221875 4.68991623896e-10
35 1 -0.033665625 -0.00125 -0.013584375 8.43370492276e-05
36 1 -0.033665625 -0.00125 -0.012403125 0.00418631945053
37 1 -0.033665625 -0.00125 -0.011221875 2.16187157447e-06
38 1 -0.033665625 -0.00125 -0.010040625 0.000821292843171
39 1 -0.033665625 -0.00125 -0.008859375 1.25344871102e-05
40 1 -0.033665625 -0.00125 -0.007678125 8.87903966032e-11
41 1 -0.033665625 -0.00125 -0.006496875 1.78511928589e-52
42 1 -0.033665625 -0.00125 -0.005315625 4.02042207357e-10
43 1 -0.033665625 -0.00125 -0.004134375 4.77091900588e-09
44 1 -0.033665625 -0.00125 -0.002953125 0.000221480480514
45 1 -0.033665625 -0.00125 -0.001771875 0.000273867114075
46 1 -0.033665625 -0.00125 -0.000590625 0.00660437926233
47 1 -0.033665625 -0.00125 0.000590625 3.32220592044e-05
48 1 -0.033665625 -0.00125 0.001771875 2.46794696126e-09
49 1 -0.033665625 -0.00125 0.002953125 6.44019114875e-18
50 1 -0.033665625 -0.00125 0.004134375 1.66740349968e-16
51 1 -0.033665625 -0.00125 0.005315625 1.43541787356e-37
52 1 -0.033665625 -0.00125 0.006496875 3.35320395365e-10
53 1 -0.033665625 -0.00125 0.007678125 1.48374865617e-09
54 1 -0.033665625 -0.00125 0.008859375 0.000400978897933
55 1 -0.033665625 -0.00125 0.010040625 8.83155122091e-08
56 1 -0.033665625 -0.00125 0.011221875 5.63914141077e-06
57 1 -0.033665625 -0.00125 0.012403125 3.78276869483e-09
58 1 -0.033665625 -0.00125 0.013584375 7.5839232518e-09
59 1 -0.032484375 -0.00125 -0.018309375 2.85779681286e-06
60 1 -0.032484375 -0.00125 -0.017128125 2.05222108043e-10
61 1 -0.032484375 -0.00125 -0.015946875 7.16910928891e-05
62 1 -0.032484375 -0.00125 -0.014765625 2.02624790846e-09
63 1 -0.032484375 -0.00125 -0.013584375 1.03146507017e-09
64 1 -0.032484375 -0.00125 -0.012403125 3.76883899667e-05
65 1 -0.032484375 -0.00125 -0.011221875 2.91393906532e-06
66 1 -0.032484375 -0.00125 -0.010040625 7.23715465437e-06
67 1 -0.032484375 -0.00125 -0.008859375 3.30618799625e-08
68 1 -0.032484375 -0.00125 -0.007678125 1.27242138883e-05
69 1 -0.032484375 -0.00125 -0.006496875 3.68129750035e-15
70 1 -0.032484375 -0.00125 -0.005315625 4.54359506174e-15
71 1 -0.032484375 -0.00125 -0.004134375 0.00113026443555
72 1 -0.032484375 -0.00125 -0.002953125 6.02110708341e-06
73 1 -0.032484375 -0.00125 -0.001771875 5.54820543751e-07
74 1 -0.032484375 -0.00125 -0.000590625 0.00104654176556
75 1 -0.032484375 -0.00125 0.000590625 1.37332047732e-05
76 1 -0.032484375 -0.00125 0.001771875 0.000498873247344
77 1 -0.032484375 -0.00125 0.002953125 2.89609548156e-10
78 1 -0.032484375 -0.00125 0.004134375 3.84723655077e-39
79 1 -0.032484375 -0.00125 0.005315625 1.02722830507e-24
80 1 -0.032484375 -0.00125 0.006496875 6.39026286499e-16
81 1 -0.032484375 -0.00125 0.007678125 3.48001076022e-11
82 1 -0.032484375 -0.00125 0.008859375 1.27175935253e-08
83 1 -0.032484375 -0.00125 0.010040625 4.92870599395e-12
84 1 -0.032484375 -0.00125 0.011221875 6.41660672243e-09
85 1 -0.032484375 -0.00125 0.012403125 3.37389013804e-10
86 1 -0.032484375 -0.00125 0.013584375 5.39573250477e-196
87 1 -0.032484375 -0.00125 0.014765625 5.3134198185e-15
88 1 -0.032484375 -0.00125 0.015946875 1.65271743734e-09
89 1 -0.032484375 -0.00125 0.017128125 1.03755494102e-19
90 1 -0.032484375 -0.00125 0.018309375 1.69527942842e-15
91 1 -0.031303125 -0.00125 -0.019490625 0.00149278230333
92 1 -0.031303125 -0.00125 -0.018309375 0.000195850299729
93 1 -0.031303125 -0.00125 -0.017128125 1.63870647728e-07
94 1 -0.031303125 -0.00125 -0.015946875 1.97982459462e-11
95 1 -0.031303125 -0.00125 -0.014765625 0.000351248268574
96 1 -0.031303125 -0.00125 -0.013584375 1.33954599915e-07
97 1 -0.031303125 -0.00125 -0.012403125 5.18264152802e-05
98 1 -0.031303125 -0.00125 -0.011221875 0.00186973477244
99 1 -0.031303125 -0.00125 -0.010040625 0.00038548252041
100 1 -0.031303125 -0.00125 -0.008859375 7.02440188112e-07
101 1 -0.031303125 -0.00125 -0.007678125 4.56548990802e-06
102 1 -0.031303125 -0.00125 -0.006496875 5.11996318268e-11
103 1 -0.031303125 -0.00125 -0.005315625 9.29730042567e-07
104 1 -0.031303125 -0.00125 -0.004134375 3.29025117824e-13
105 1 -0.031303125 -0.00125 -0.002953125 0.00205816041838
106 1 -0.031303125 -0.00125 -0.001771875 0.000289528188447
107 1 -0.031303125 -0.00125 -0.000590625 0.000390355474115
108 1 -0.031303125 -0.00125 0.000590625 1.94681228741e-12
109 1 -0.031303125 -0.00125 0.001771875 2.08803124189e-06
110 1 -0.031303125 -0.00125 0.002953125 1.36727701312e-08
111 1 -0.031303125 -0.00125 0.004134375 1.74990119636e-12
112 1 -0.031303125 -0.00125 0.005315625 1.00014132425e-05
113 1 -0.031303125 -0.00125 0.006496875 1.18463510583e-05
114 1 -0.031303125 -0.00125 0.007678125 3.2221175644e-09
115 1 -0.031303125 -0.00125 0.008859375 6.97329486967e-14
116 1 -0.031303125 -0.00125 0.010040625 4.40414189054e-60
117 1 -0.031303125 -0.00125 0.011221875 1.59880781991e-16
118 1 -0.031303125 -0.00125 0.012403125 1.14106647318e-12
119 1 -0.031303125 -0.00125 0.013584375 1.48216448639e-17
120 1 -0.031303125 -0.00125 0.014765625 1.60035121368e-19
121 1 -0.031303125 -0.00125 0.015946875 8.84527159613e-17
122 1 -0.031303125 -0.00125 0.017128125 4.34719423832e-36
123 1 -0.031303125 -0.00125 0.018309375 7.95563222122e-10
124 1 -0.031303125 -0.00125 0.019490625 1.76845823447e-64
125 1 -0.030121875 -0.00125 -0.020671875 2.18871248532e-10
126 1 -0.030121875 -0.00125 -0.019490625 3.46472517765e-05
127 1 -0.030121875 -0.00125 -0.018309375 0.000403327387805
128 1 -0.030121875 -0.00125 -0.017128125 3.71509261706e-06
129 1 -0.030121875 -0.00125 -0.015946875 3.36736844265e-14
130 1 -0.030121875 -0.00125 -0.014765625 1.44332800854e-11
131 1 -0.030121875 -0.00125 -0.013584375 2.24234978011e-12
132 1 -0.030121875 -0.00125 -0.012403125 0.000177184493429
133 1 -0.030121875 -0.00125 -0.011221875 2.87802094487e-06
134 1 -0.030121875 -0.00125 -0.010040625 2.48555128174e-10
135 1 -0.030121875 -0.00125 -0.008859375 4.30470491659e-09
136 1 -0.030121875 -0.00125 -0.007678125 6.03925168321e-07
137 1 -0.030121875 -0.00125 -0.006496875 6.59552482783e-17
138 1 -0.030121875 -0.00125 -0.005315625 5.4567644511e-14
139 1 -0.030121875 -0.00125 -0.004134375 2.42121226111e-13
140 1 -0.030121875 -0.00125 -0.002953125 1.61040850467e-09
141 1 -0.030121875 -0.00125 -0.001771875 6.11676556413e-06
142 1 -0.030121875 -0.00125 -0.000590625 1.69306653722e-08
143 1 -0.030121875 -0.00125 0.000590625 1.52783353683e-15
144 1 -0.030121875 -0.00125 0.001771875 1.31508873519e-05
145 1 -0.030121875 -0.00125 0.002953125 1.86773859277e-08
146 1 -0.030121875 -0.00125 0.004134375 4.48981868518e-10
147 1 -0.030121875 -0.00125 0.005315625 2.51295863382e-10
148 1 -0.030121875 -0.00125 0.006496875 1.59507180951e-08
149 1 -0.030121875 -0.00125 0.007678125 3.88310222483e-16
150 1 -0.030121875 -0.00125 0.008859375 9.90695998412e-23
151 1 -0.030121875 -0.00125 0.010040625 9.59411569016e-31
152 1 -0.030121875 -0.00125 0.011221875 3.16262853851e-37
153 1 -0.030121875 -0.00125 0.012403125 2.43963448637e-15
154 1 -0.030121875 -0.00125 0.013584375 1.05432336858e-17
155 1 -0.030121875 -0.00125 0.014765625 2.57286308239e-26
156 1 -0.030121875 -0.00125 0.015946875 4.46523369683e-28
157 1 -0.030121875 -0.00125 0.017128125 1.86038663645e-40
158 1 -0.030121875 -0.00125 0.018309375 1.086602631e-22
159 1 -0.030121875 -0.00125 0.019490625 1.22921065636e-77
160 1 -0.030121875 -0.00125 0.020671875 3.03463883426e-62
161 1 -0.028940625 -0.00125 -0.021853125 0.0153585785289
162 1 -0.028940625 -0.00125 -0.020671875 0.000844397501182
163 1 -0.028940625 -0.00125 -0.019490625 0.0104273952292
164 1 -0.028940625 -0.00125 -0.018309375 1.04372225724e-06
165 1 -0.028940625 -0.00125 -0.017128125 3.05539719892e-06
166 1 -0.028940625 -0.00125 -0.015946875 1.64722225269e-05
167 1 -0.028940625 -0.00125 -0.014765625 3.15025926073e-05
168 1 -0.028940625 -0.00125 -0.013584375 1.48185141181e-09
169 1 -0.028940625 -0.00125 -0.012403125 3.23650338809e-09
170 1 -0.028940625 -0.00125 -0.011221875 1.62626321261e-13
171 1 -0.028940625 -0.00125 -0.010040625 1.90220577533e-05
172 1 -0.028940625 -0.00125 -0.008859375 3.01407601118e-14
173 1 -0.028940625 -0.00125 -0.007678125 1.80712023528e-07
174 1 -0.028940625 -0.00125 -0.006496875 1.97527843824e-11
175 1 -0.028940625 -0.00125 -0.005315625 2.45199547628e-05
176 1 -0.028940625 -0.00125 -0.004134375 1.40507056733e-10
177 1 -0.028940625 -0.00125 -0.002953125 1.98938548691e-07
178 1 -0.028940625 -0.00125 -0.001771875 8.09193451999e-11
179 1 -0.028940625 -0.00125 -0.000590625 2.06018596206e-06
180 1 -0.028940625 -0.00125 0.000590625 4.42606070093e-07
181 1 -0.028940625 -0.00125 0.001771875 8.6854619786e-06
182 1 -0.028940625 -0.00125 0.002953125 1.07600765164e-14
183 1 -0.028940625 -0.00125 0.004134375 1.20563000644e-07
184 1 -0.028940625 -0.00125 0.005315625 3.84208699001e-48
185 1 -0.028940625 -0.00125 0.006496875 1.00061777736e-08
186 1 -0.028940625 -0.00125 0.007678125 1.22457866991e-24
187 1 -0.028940625 -0.00125 0.008859375 4.84770514542e-10
188 1 -0.028940625 -0.00125 0.010040625 2.0591033967e-30
189 1 -0.028940625 -0.00125 0.011221875 5.66979179898e-15
190 1 -0.028940625 -0.00125 0.012403125 4.29715087919e-37
191 1 -0.028940625 -0.00125 0.013584375 7.64225339992e-14
192 1 -0.028940625 -0.00125 0.014765625 5.98435063363e-36
193 1 -0.028940625 -0.00125 0.015946875 1.78909785495e-14
194 1 -0.028940625 -0.00125 0.017128125 1.70666285251e-38
195 1 -0.028940625 -0.00125 0.018309375 7.83349347749e-16
196 1 -0.028940625 -0.00125 0.019490625 1.53186879514e-78
197 1 -0.028940625 -0.00125 0.020671875 2.35953948983e-46
198 1 -0.028940625 -0.00125 0.021853125 2.30243397911e-51
199 1 -0.027759375 -0.00125 -0.024215625 7.86419271668e-06
200 1 -0.027759375 -0.00125 -0.023034375 0.000189063854942
201 1 -0.027759375 -0.00125 -0.021853125 0.0998527844401
202 1 -0.027759375 -0.00125 -0.020671875 0.0012719931685
203 1 -0.027759375 -0.00125 -0.019490625 0.00179905347021
204 1 -0.027759375 -0.00125 -0.018309375 7.46955299694e-05
205 1 -0.027759375 -0.00125 -0.017128125 7.19335732146e-05
206 1 -0.027759375 -0.00125 -0.015946875 6.47163783608e-11
207 1 -0.027759375 -0.00125 -0.014765625 3.53290341531e-11
208 1 -0.027759375 -0.00125 -0.013584375 1.50475695387e-20
209 1 -0.027759375 -0.00125 -0.012403125 2.95649333252e-07
210 1 -0.027759375 -0.00125 -0.011221875 1.56350594764e-07
211 1 -0.027759375 -0.00125 -0.010040625 4.70098998039e-13
212 1 -0.027759375 -0.00125 -0.008859375 1.89157006481e-08
213 1 -0.027759375 -0.00125 -0.007678125 1.7325760578e-08
214 1 -0.027759375 -0.00125 -0.006496875 1.58165631201e-10
215 1 -0.027759375 -0.00125 -0.005315625 4.4371993349e-11
216 1 -0.027759375 -0.00125 -0.004134375 2.72251268481e-09
217 1 -0.027759375 -0.00125 -0.002953125 0.000289772136776
218 1 -0.027759375 -0.00125 -0.001771875 8.85478126284e-06
219 1 -0.027759375 -0.00125 -0.000590625 0.0358583533075
220 1 -0.027759375 -0.00125 0.000590625 0.00357305181658
221 1 -0.027759375 -0.00125 0.001771875 0.000725762527812
222 1 -0.027759375 -0.00125 0.002953125 4.64850511863e-16
223 1 -0.027759375 -0.00125 0.004134375 2.22172240418e-23
224 1 -0.027759375 -0.00125 0.005315625 0.00166841249357
225 1 -0.027759375 -0.00125 0.006496875 1.721731113e-14
226 1 -0.027759375 -0.00125 0.007678125 3.88690916384e-19
227 1 -0.027759375 -0.00125 0.008859375 3.39131813016e-06
228 1 -0.027759375 -0.00125 0.010040625 0.000275936784461
229 1 -0.027759375 -0.00125 0.011221875 1.95403222538e-18
230 1 -0.027759375 -0.00125 0.012403125 4.00063967563e-27
231 1 -0.027759375 -0.00125 0.013584375 5.68451324997e-28
232 1 -0.027759375 -0.00125 0.014765625 1.7015376772e-11
233 1 -0.027759375 -0.00125 0.015946875 6.76163303419e-75
234 1 -0.027759375 -0.00125 0.017128125 1.22981974612e-11
235 1 -0.027759375 -0.00125 0.018309375 4.79924610179e-21
236 1 -0.027759375 -0.00125 0.019490625 7.35186618536e-22
237 1 -0.027759375 -0.00125 0.020671875 2.1387563947e-79
238 1 -0.027759375 -0.00125 0.021853125 3.00524036864e-105
239 1 -0.027759375 -0.00125 0.023034375 2.30987588495e-56
240 1 -0.027759375 -0.00125 0.024215625 9.44795867749e-32
241 1 -0.026578125 -0.00125 -0.026578125 0.000419424629081
242 1 -0.026578125 -0.00125 -0.025396875 0.000111247840701
243 1 -0.026578125 -0.00125 -0.024215625 0.00160361776482
244 1 -0.026578125 -0.00125 -0.023034375 8.18691006969e-05
245 1 -0.026578125 -0.00125 -0.021853125 0.0393905638327
246 1 -0.026578125 -0.00125 -0.020671875 0.00465170568118
247 1 -0.026578125 -0.00125 -0.019490625 0.00711152745482
248 1 -0.026578125 -0.00125 -0.018309375 0.000133551009373
249 1 -0.026578125 -0.00125 -0.017128125 0.00042859177998
250 1 -0.026578125 -0.00125 -0.015946875 1.7760122659e-07
251 1 -0.026578125 -0.00125 -0.014765625 6.70672029589e-10
252 1 -0.026578125 -0.00125 -0.013584375 2.00142498171e-05
253 1 -0.026578125 -0.00125 -0.012403125 1.80854087174e-07
254 1 -0.026578125 -0.00125 -0.011221875 5.4080782139e-10
255 1 -0.026578125 -0.00125 -0.010040625 2.14008208213e-07
256 1 -0.026578125 -0.00125 -0.008859375 8.09500217949e-08
257 1 -0.026578125 -0.00125 -0.007678125 0.00081704265523
258 1 -0.026578125 -0.00125 -0.006496875 3.12193649448e-10
259 1 -0.026578125 -0.00125 -0.005315625 2.54690512904e-08
260 1 -0.026578125 -0.00125 -0.004134375 8.51229238824e-11
261 1 -0.026578125 -0.00125 -0.002953125 7.31962008206e-05
262 1 -0.026578125 -0.00125 -0.001771875 0.000715877321589
263 1 -0.026578125 -0.00125 -0.000590625 0.000933068707865
264 1 -0.026578125 -0.00125 0.000590625 0.000171742296276
265 1 -0.026578125 -0.00125 0.001771875 0.00426368429167
266 1 -0.026578125 -0.00125 0.002953125 0.00106575131386
267 1 -0.026578125 -0.00125 0.004134375 0.000252202748624
268 1 -0.026578125 -0.00125 0.005315625 4.01917492555e-07
269 1 -0.026578125 -0.00125 0.006496875 1.26848580656e-07
270 1 -0.026578125 -0.00125 0.007678125 3.4357180058e-06
271 1 -0.026578125 -0.00125 0.008859375 1.79412951487e-10
272 1 -0.026578125 -0.00125 0.010040625 9.6083469543e-08
273 1 -0.026578125 -0.00125 0.011221875 4.53523332918e-06
274 1 -0.026578125 -0.00125 0.012403125 3.73786726149e-13
275 1 -0.026578125 -0.00125 0.013584375 2.06923348329e-09
276 1 -0.026578125 -0.00125 0.014765625 8.15952448545e-14
277 1 -0.026578125 -0.00125 0.015946875 1.06764534092e-09
278 1 -0.026578125 -0.00125 0.017128125 2.24115029931e-09
279 1 -0.026578125 -0.00125 0.018309375 1.11187609484e-10
280 1 -0.026578125 -0.00125 0.019490625 1.59056000356e-18
281 1 -0.026578125 -0.00125 0.020671875 8.03552074445e-44
282 1 -0.026578125 -0.00125 0.021853125 4.47236273613e-62
283 1 -0.026578125 -0.00125 0.023034375 1.28451256255e-71
284 1 -0.026578125 -0.00125 0.024215625 7.58563342915e-95
285 1 -0.026578125 -0.00125 0.025396875 2.70136652266e-101
286 1 -0.026578125 -0.00125 0.026578125 1.03967797291e-60
287 1 -0.025396875 -0.00125 -0.026578125 3.75502422201e-07
288 1 -0.025396875 -0.00125 -0.025396875 0.000978638701596
289 1 -0.025396875 -0.00125 -0.024215625 0.00199426649771
290 1 -0.025396875 -0.00125 -0.023034375 0.0160121034142
291 1 -0.025396875 -0.00125 -0.021853125 0.000417878062156
292 1 -0.025396875 -0.00125 -0.020671875 0.0123213260877
293 1 -0.025396875 -0.00125 -0.019490625 0.00454776285941
294 1 -0.025396875 -0.00125 -0.018309375 0.000391997765602
295 1 -0.025396875 -0.00125 -0.017128125 4.64688036215e-10
296 1 -0.025396875 -0.00125 -0.015946875 3.73497374464e-08
297 1 -0.025396875 -0.00125 -0.014765625 0.00268426917009
298 1 -0.025396875 -0.00125 -0.013584375 8.3647641089e-11
299 1 -0.025396875 -0.00125 -0.012403125 0.00203305148389
300 1 -0.025396875 -0.00125 -0.011221875 5.6568886901e-07
301 1 -0.025396875 -0.00125 -0.010040625 0.000664750831877
302 1 -0.025396875 -0.00125 -0.008859375 0.000418116903086
303 1 -0.025396875 -0.00125 -0.007678125 0.0169686562693
304 1 -0.025396875 -0.00125 -0.006496875 0.000485200950605
305 1 -0.025396875 -0.00125 -0.005315625 2.99491992877e-07
306 1 -0.025396875 -0.00125 -0.004134375 1.06555084563e-09
307 1 -0.025396875 -0.00125 -0.002953125 0.000590579911788
308 1 -0.025396875 -0.00125 -0.001771875 0.000294535035309
309 1 -0.025396875 -0.00125 -0.000590625 0.000345129849067
310 1 -0.025396875 -0.00125 0.000590625 9.57259100199e-05
311 1 -0.025396875 -0.00125 0.001771875 0.0104551245091
312 1 -0.025396875 -0.00125 0.002953125 0.00258473815252
313 1 -0.025396875 -0.00125 0.004134375 0.010391830512
314 1 -0.025396875 -0.00125 0.005315625 6.32969783548e-07
315 1 -0.025396875 -0.00125 0.006496875 0.00864804424199
316 1 -0.025396875 -0.00125 0.007678125 0.00376888977482
317 1 -0.025396875 -0.00125 0.008859375 3.76910753601e-05
318 1 -0.025396875 -0.00125 0.010040625 1.4259123636e-26
319 1 -0.025396875 -0.00125 0.011221875 6.69346609207e-06
320 1 -0.025396875 -0.00125 0.012403125 5.92499429195e-07
321 1 -0.025396875 -0.00125 0.013584375 0.00248780791112
322 1 -0.025396875 -0.00125 0.014765625 3.6855822165e-09
323 1 -0.025396875 -0.00125 0.015946875 1.79892884695e-08
324 1 -0.025396875 -0.00125 0.017128125 1.12236613815e-11
325 1 -0.025396875 -0.00125 0.018309375 9.08338443894e-11
326 1 -0.025396875 -0.00125 0.019490625 2.99176528883e-25
327 1 -0.025396875 -0.00125 0.020671875 4.51972912524e-23
328 1 -0.025396875 -0.00125 0.021853125 1.45325712949e-157
329 1 -0.025396875 -0.00125 0.023034375 1.9872076422e-47
330 1 -0.025396875 -0.00125 0.024215625 1.16011110218e-39
331 1 -0.025396875 -0.00125 0.025396875 2.26437258086e-121
332 1 -0.025396875 -0.00125 0.026578125 1.37415957774e-42
333 1 -0.024215625 -0.00125 -0.027759375 0.00050624794611
334 1 -0.024215625 -0.00125 -0.026578125 0.00207185719435
335 1 -0.024215625 -0.00125 -0.025396875 0.00895787840131
336 1 -0.024215625 -0.00125 -0.024215625 0.00781328739457
337 1 -0.024215625 -0.00125 -0.023034375 9.05239093455e-07
338 1 -0.024215625 -0.00125 -0.021853125 0.00361218146144
339 1 -0.024215625 -0.00125 -0.020671875 0.0247680682444
340 1 -0.024215625 -0.00125 -0.019490625 0.0244673099081
341 1 -0.024215625 -0.00125 -0.018309375 0.000137700980748
342 1 -0.024215625 -0.00125 -0.017128125 4.36944727001e-05
343 1 -0.024215625 -0.00125 -0.015946875 0.000629879223341
344 1 -0.024215625 -0.00125 -0.014765625 0.0040777984507
345 1 -0.024215625 -0.00125 -0.013584375 1.63741500986e-05
346 1 -0.024215625 -0.00125 -0.012403125 0.00134948211944
347 1 -0.024215625 -0.00125 -0.011221875 0.00073083577898
348 1 -0.024215625 -0.00125 -0.010040625 0.0248057529724
349 1 -0.024215625 -0.00125 -0.008859375 0.00174486839467
350 1 -0.024215625 -0.00125 -0.007678125 0.000348431595591
351 1 -0.024215625 -0.00125 -0.006496875 0.000135876672931
352 1 -0.024215625 -0.00125 -0.005315625 0.00421502724853
353 1 -0.024215625 -0.00125 -0.004134375 0.00250177108632
354 1 -0.024215625 -0.00125 -0.002953125 0.00609648441331
355 1 -0.024215625 -0.00125 -0.001771875 0.000327383292304
356 1 -0.024215625 -0.00125 -0.000590625 0.0139722229669
357 1 -0.024215625 -0.00125 0.000590625 0.000159809872968
358 1 -0.024215625 -0.00125 0.001771875 0.0249784071235
359 1 -0.024215625 -0.00125 0.002953125 0.0364340579729
360 1 -0.024215625 -0.00125 0.004134375 0.0174179584391
361 1 -0.024215625 -0.00125 0.005315625 0.0168636587193
362 1 -0.024215625 -0.00125 0.006496875 0.0281876785542
363 1 -0.024215625 -0.00125 0.007678125 0.00269279064925
364 1 -0.024215625 -0.00125 0.008859375 0.0010377057535
365 1 -0.024215625 -0.00125 0.010040625 8.78298057409e-06
366 1 -0.024215625 -0.00125 0.011221875 9.36902594616e-07
367 1 -0.024215625 -0.00125 0.012403125 0.0013327922726
368 1 -0.024215625 -0.00125 0.013584375 0.00828583158297
369 1 -0.024215625 -0.00125 0.014765625 3.77279974185e-05
370 1 -0.024215625 -0.00125 0.015946875 0.000116168930708
371 1 -0.024215625 -0.00125 0.017128125 1.27542796615e-07
372 1 -0.024215625 -0.00125 0.018309375 5.45181508429e-15
373 1 -0.024215625 -0.00125 0.019490625 1.07052158342e-35
374 1 -0.024215625 -0.00125 0.020671875 1.06724431017e-24
375 1 -0.024215625 -0.00125 0.021853125 6.89979668506e-42
376 1 -0.024215625 -0.00125 0.023034375 2.57351958425e-36
377 1 -0.024215625 -0.00125 0.024215625 1.33463270229e-262
378 1 -0.024215625 -0.00125 0.025396875 1.51639410174e-25
379 1 -0.024215625 -0.00125 0.026578125 4.82999897984e-63
380 1 -0.024215625 -0.00125 0.027759375 6.53108929273e-29
381 1 -0.023034375 -0.00125 -0.027759375 0.00373293127745
382 1 -0.023034375 -0.00125 -0.026578125 0.0159272761083
383 1 -0.023034375 -0.00125 -0.025396875 0.0171631846812
384 1 -0.023034375 -0.00125 -0.024215625 0.0317797696398
385 1 -0.023034375 -0.00125 -0.023034375 0.0318344290835
386 1 -0.023034375 -0.00125 -0.021853125 0.00163012926306
387 1 -0.023034375 -0.00125 -0.020671875 0.00312317169485
388 1 -0.023034375 -0.00125 -0.019490625 0.0253432971613
389 1 -0.023034375 -0.00125 -0.018309375 0.00168057206427
390 1 -0.023034375 -0.00125 -0.017128125 0.000952660335496
391 1 -0.023034375 -0.00125 -0.015946875 0.000225317116948
392 1 -0.023034375 -0.00125 -0.014765625 0.000450526317799
393 1 -0.023034375 -0.00125 -0.013584375 0.000621421096435
394 1 -0.023034375 -0.00125 -0.012403125 0.000295853720028
395 1 -0.023034375 -0.00125 -0.011221875 0.000974865679395
396 1 -0.023034375 -0.00125 -0.010040625 0.0217025590232
397 1 -0.023034375 -0.00125 -0.008859375 0.00887888226005
398 1 -0.023034375 -0.00125 -0.007678125 0.000137679440076
399 1 -0.023034375 -0.00125 -0.006496875 0.00257613953385
400 1 -0.023034375 -0.00125 -0.005315625 0.00806218576128
401 1 -0.023034375 -0.00125 -0.004134375 0.000282980391679
402 1 -0.023034375 -0.00125 -0.002953125 0.00126945807804
403 1 -0.023034375 -0.00125 -0.001771875 0.00205762435448
404 1 -0.023034375 -0.00125 -0.000590625 0.00553144710844
405 1 -0.023034375 -0.00125 0.000590625 0.00184501261206
406 1 -0.023034375 -0.00125 0.001771875 0.0146616063526
407 1 -0.023034375 -0.00125 0.002953125 0.00892712503665
408 1 -0.023034375 -0.00125 0.004134375 0.0366296942782
409 1 -0.023034375 -0.00125 0.005315625 0.0684721598719
410 1 -0.023034375 -0.00125 0.006496875 0.00805879518412
411 1 -0.023034375 -0.00125 0.007678125 0.0069238634843
412 1 -0.023034375 -0.00125 0.008859375 0.0219174899288
413 1 -0.023034375 -0.00125 0.010040625 0.020499234717
414 1 -0.023034375 -0.00125 0.011221875 6.29840168225e-05
415 1 -0.023034375 -0.00125 0.012403125 5.55029652559e-13
416 1 -0.023034375 -0.00125 0.013584375 0.00688926764536
417 1 -0.023034375 -0.00125 0.014765625 7.9951091384e-05
418 1 -0.023034375 -0.00125 0.015946875 0.00131943665892
419 1 -0.023034375 -0.00125 0.017128125 2.70515859375e-08
420 1 -0.023034375 -0.00125 0.018309375 8.92120365788e-05
421 1 -0.023034375 -0.00125 0.019490625 2.75675810959e-20
422 1 -0.023034375 -0.00125 0.020671875 3.27531034398e-53
423 1 -0.023034375 -0.00125 0.021853125 1.34923892397e-53
424 1 -0.023034375 -0.00125 0.023034375 3.29947141546e-215
425 1 -0.023034375 -0.00125 0.024215625 5.76054009555e-74
426 1 -0.023034375 -0.00125 0.025396875 5.70222101789e-167
427 1 -0.023034375 -0.00125 0.026578125 4.44364254597e-22
428 1 -0.023034375 -0.00125 0.027759375 4.31308715101e-41
429 1 -0.021853125 -0.00125 -0.028940625 0.01934132486
430 1 -0.021853125 -0.00125 -0.027759375 0.0322170163287
431 1 -0.021853125 -0.00125 -0.026578125 0.0133618955198
432 1 -0.021853125 -0.00125 -0.025396875 0.0253450395465
433 1 -0.021853125 -0.00125 -0.024215625 0.00312895110019
434 1 -0.021853125 -0.00125 -0.023034375 0.00613606741894
435 1 -0.021853125 -0.00125 -0.021853125 0.00416090720338
436 1 -0.021853125 -0.00125 -0.020671875 0.0232968479353
437 1 -0.021853125 -0.00125 -0.019490625 0.0778723264439
438 1 -0.021853125 -0.00125 -0.018309375 0.000597479748568
439 1 -0.021853125 -0.00125 -0.017128125 0.0230058465987
440 1 -0.021853125 -0.00125 -0.015946875 0.00435220448482
441 1 -0.021853125 -0.00125 -0.014765625 0.0144053334944
442 1 -0.021853125 -0.00125 -0.013584375 0.0474618331902
443 1 -0.021853125 -0.00125 -0.012403125 0.00620045107477
444 1 -0.021853125 -0.00125 -0.011221875 0.00194488781962
445 1 -0.021853125 -0.00125 -0.010040625 0.00481924483848
446 1 -0.021853125 -0.00125 -0.008859375 0.00191548555817
447 1 -0.021853125 -0.00125 -0.007678125 0.0198740916612
448 1 -0.021853125 -0.00125 -0.006496875 0.00265197122835
449 1 -0.021853125 -0.00125 -0.005315625 0.042771899988
450 1 -0.021853125 -0.00125 -0.004134375 0.0672339718135
451 1 -0.021853125 -0.00125 -0.002953125 0.0186772786729
452 1 -0.021853125 -0.00125 -0.001771875 0.0091647358387
453 1 -0.021853125 -0.00125 -0.000590625 0.0704617523663
454 1 -0.021853125 -0.00125 0.000590625 0.0308219354681
455 1 -0.021853125 -0.00125 0.001771875 0.0270647474694
456 1 -0.021853125 -0.00125 0.002953125 0.0253520497975
457 1 -0.021853125 -0.00125 0.004134375 0.0277910381981
458 1 -0.021853125 -0.00125 0.005315625 0.025457851512
459 1 -0.021853125 -0.00125 0.006496875 0.00975524365157
460 1 -0.021853125 -0.00125 0.007678125 0.0106994584119
461 1 -0.021853125 -0.00125 0.008859375 0.0105446641376
462 1 -0.021853125 -0.00125 0.010040625 0.000329060572947
463 1 -0.021853125 -0.00125 0.011221875 0.0287736193823
464 1 -0.021853125 -0.00125 0.012403125 0.0159178457136
465 1 -0.021853125 -0.00125 0.013584375 0.00475147945417
466 1 -0.021853125 -0.00125 0.014765625 0.00711476345461
467 1 -0.021853125 -0.00125 0.015946875 0.00139182837803
468 1 -0.021853125 -0.00125 0.017128125 3.31831384999e-08
469 1 -0.021853125 -0.00125 0.018309375 8.11379118963e-09
470 1 -0.021853125 -0.00125 0.019490625 3.27755256644e-21
471 1 -0.021853125 -0.00125 0.020671875 1.96094718555e-20
472 1 -0.021853125 -0.00125 0.021853125 3.41730269189e-25
473 1 -0.021853125 -0.00125 0.023034375 3.53077378088e-22
474 1 -0.021853125 -0.00125 0.024215625 4.56017762247e-27
475 1 -0.021853125 -0.00125 0.025396875 8.72164825673e-41
476 1 -0.021853125 -0.00125 0.026578125 4.23816094261e-108
477 1 -0.021853125 -0.00125 0.027759375 1.1472136539e-33
478 1 -0.021853125 -0.00125 0.028940625 2.83266477961e-71
479 1 -0.020671875 -0.00125 -0.030121875 0.0078067729739
480 1 -0.020671875 -0.00125 -0.028940625 0.0412992834998
481 1 -0.020671875 -0.00125 -0.027759375 0.110045613015
482 1 -0.020671875 -0.00125 -0.026578125 0.0278476115869
483 1 -0.020671875 -0.00125 -0.025396875 0.027898984795
484 1 -0.020671875 -0.00125 -0.024215625 0.0486870304394
485 1 -0.020671875 -0.00125 -0.023034375 0.0498057992015
486 1 -0.020671875 -0.00125 -0.021853125 0.0170982661604
487 1 -0.020671875 -0.00125 -0.020671875 0.0117920201229
488 1 -0.020671875 -0.00125 -0.019490625 0.0773603953603
489 1 -0.020671875 -0.00125 -0.018309375 0.024786723682
490 1 -0.020671875 -0.00125 -0.017128125 0.00602680000966
491 1 -0.020671875 -0.00125 -0.015946875 0.0343959104269
492 1 -0.020671875 -0.00125 -0.014765625 0.0304254719035
493 1 -0.020671875 -0.00125 -0.013584375 0.0587366901466
494 1 -0.020671875 -0.00125 -0.012403125 0.0109812357957
495 1 -0.020671875 -0.00125 -0.011221875 0.000547854888392
496 1 -0.020671875 -0.00125 -0.010040625 0.00793741219705
497 1 -0.020671875 -0.00125 -0.008859375 0.0100289307879
498 1 -0.020671875 -0.00125 -0.007678125 0.00180264723756
499 1 -0.020671875 -0.00125 -0.006496875 0.00242622043891
500 1 -0.020671875 -0.00125 -0.005315625 0.0552211104486
501 1 -0.020671875 -0.00125 -0.004134375 0.0313354904734
502 1 -0.020671875 -0.00125 -0.002953125 0.0175622744519
503 1 -0.020671875 -0.00125 -0.001771875 0.022161992507
504 1 -0.020671875 -0.00125 -0.000590625 0.0468523452896
505 1 -0.020671875 -0.00125 0.000590625 0.216381291566
506 1 -0.020671875 -0.00125 0.001771875 0.0224854776251
507 1 -0.020671875 -0.00125 0.002953125 0.0163759287627
508 1 -0.020671875 -0.00125 0.004134375 0.0222653003851
509 1 -0.020671875 -0.00125 0.005315625 0.0181711827659
510 1 -0.020671875 -0.00125 0.006496875 0.06890349871
511 1 -0.020671875 -0.00125 0.007678125 0.0359070739468
512 1 -0.020671875 -0.00125 0.008859375 0.0349454711918
513 1 -0.020671875 -0.00125 0.010040625 0.0101111414873
514 1 -0.020671875 -0.00125 0.011221875 0.0591961009475