ITEM: TIMESTEP
0
ITEM: NUMBER OF ATOMS
3080
ITEM: BOX BOUNDS ss ss ss
-3.7007399999999996e-02 3.7007399999999996e-02
-2.0002499999999999e-03 2.5000000000000004e-07
-3.7007399999999996e-02 3.7007399999999996e-02
ITEM: ATOMS id type x y z c_1
0 1 -0.037209375 -0.00125 -0.000590625 0.999999999999
1 1 -0.036028125 -0.00125 -0.007678125 0.0
2 1 -0.036028125 -0.00125 -0.006496875 0.0
3 1 -0.036028125 -0.00125 -0.005315625 0.0
4 1 -0.036028125 -0.00125 -0.004134375 0.0
5 1 -0.036028125 -0.00125 -0.002953125 6.02669200524e-237
6 1 -0.036028125 -0.00125 -0.001771875 1.93839773154e-60
7 1 -0.036028125 -0.00125 -0.000590625 3.9443007767e-45
8 1 -0.036028125 -0.00125 0.000590625 0.0
9 1 -0.036028125 -0.00125 0.001771875 5.54648371357e-94
10 1 -0.036028125 -0.00125 0.002953125 0.0
11 1 -0.036028125 -0.00125 0.004134375 0.0
12 1 -0.036028125 -0.00125 0.005315625 0.0
13 1 -0.036028125 -0.00125 0.006496875 0.0
14 1 -0.036028125 -0.00125 0.007678125 0.0
15 1 -0.034846875 -0.00125 -0.011221875 4.42480977632e-20
16 1 -0.034846875 -0.00125 -0.010040625 3.1923481224e-125
17 1 -0.034846875 -0.00125 -0.008859375 1.38828892901e-84
18 1 -0.034846875 -0.00125 -0.007678125 0.0
19 1 -0.034846875 -0.00125 -0.006496875 0.0
20 1 -0.034846875 -0.00125 -0.005315625 0.0
21 1 -0.034846875 -0.00125 -0.004134375 0.0
22 1 -0.034846875 -0.00125 -0.002953125 0.0
23 1 -0.034846875 -0.00125 -0.001771875 0.0
24 1 -0.034846875 -0.00125 -0.000590625 3.16154841943e-136
25 1 -0.034846875 -0.00125 0.000590625 0.0
26 1 -0.034846875 -0.00125 0.001771875 0.0
27 1 -0.034846875 -0.00125 0.002953125 0.0
28 1 -0.034846875 -0.00125 0.004134375 0.0
29 1 -0.034846875 -0.00125 0.005315625 0.0
30 1 -0.034846875 -0.00125 0.006496875 0.0
31 1 -0.034846875 -0.00125 0.007678125 0.0
32 1 -0.034846875 -0.00125 0.008859375 1.93016050206e-203
33 1 -0.034846875 -0.00125 0.010040625 0.0
34 1 -0.034846875 -0.00125 0.011221875 0.0
35 1 -0.033665625 -0.00125 -0.013584375 1.31999499175e-124
36 1 -0.033665625 -0.00125 -0.012403125 4.01093587611e-23
37 1 -0.033665625 -0.00125 -0.011221875 1.0126806697e-31
38 1 -0.033665625 -0.00125 -0.010040625 2.05974205911e-75
39 1 -0.033665625 -0.00125 -0.008859375 2.20447428604e-142
40 1 -0.033665625 -0.00125 -0.007678125 0.0
41 1 -0.033665625 -0.00125 -0.006496875 0.0
42 1 -0.033665625 -0.00125 -0.005315625 0.0
43 1 -0.033665625 -0.00125 -0.004134375 0.0
44 1 -0.033665625 -0.00125 -0.002953125 0.0
45 1 -0.033665625 -0.00125 -0.001771875 0.0
46 1 -0.033665625 -0.00125 -0.000590625 2.9879654155e-135
47 1 -0.033665625 -0.00125 0.000590625 0.0
48 1 -0.033665625 -0.00125 0.001771875 0.0
49 1 -0.033665625 -0.00125 0.002953125 0.0
50 1 -0.033665625 -0.00125 0.004134375 0.0
51 1 -0.033665625 -0.00125 0.005315625 0.0
52 1 -0.033665625 -0.00125 0.006496875 0.0
53 1 -0.033665625 -0.00125 0.007678125 0.0
54 1 -0.033665625 -0.00125 0.008859375 0.0
55 1 -0.033665625 -0.00125 0.010040625 0.0
56 1 -0.033665625 -0.00125 0.011221875 0.0
57 1 -0.033665625 -0.00125 0.012403125 3.62498134956e-225
58 1 -0.033665625 -0.00125 0.013584375 0.0
59 1 -0.032484375 -0.00125 -0.018309375 8.56747013602e-281
60 1 -0.032484375 -0.00125 -0.017128125 6.27795578597e-294
61 1 -0.032484375 -0.00125 -0.015946875 9.00209087508e-92
62 1 -0.032484375 -0.00125 -0.014765625 1.44143175845e-128
63 1 -0.032484375 -0.00125 -0.013584375 6.299473272e-137
64 1 -0.032484375 -0.00125 -0.012403125 1.05529213533e-58
65 1 -0.032484375 -0.00125 -0.011221875 9.20314770178e-55
66 1 -0.032484375 -0.00125 -0.010040625 3.97448464764e-182
67 1 -0.032484375 -0.00125 -0.008859375 9.22604921087e-182
68 1 -0.032484375 -0.00125 -0.007678125 1.67362266753e-121
69 1 -0.032484375 -0.00125 -0.006496875 0.0
70 1 -0.032484375 -0.00125 -0.005315625 0.0
71 1 -0.032484375 -0.00125 -0.004134375 0.0
72 1 -0.032484375 -0.00125 -0.002953125 0.0
73 1 -0.032484375 -0.00125 -0.001771875 0.0
74 1 -0.032484375 -0.00125 -0.000590625 1.25622601632e-222
75 1 -0.032484375 -0.00125 0.000590625 0.0
76 1 -0.032484375 -0.00125 0.001771875 4.88190296294e-219
77 1 -0.032484375 -0.00125 0.002953125 0.0
78 1 -0.032484375 -0.00125 0.004134375 0.0
79 1 -0.032484375 -0.00125 0.005315625 0.0
80 1 -0.032484375 -0.00125 0.006496875 0.0
81 1 -0.032484375 -0.00125 0.007678125 0.0
82 1 -0.032484375 -0.00125 0.008859375 0.0
83 1 -0.032484375 -0.00125 0.010040625 0.0
84 1 -0.032484375 -0.00125 0.011221875 0.0
85 1 -0.032484375 -0.00125 0.012403125 0.0
86 1 -0.032484375 -0.00125 0.013584375 0.0
87 1 -0.032484375 -0.00125 0.014765625 0.0
88 1 -0.032484375 -0.00125 0.015946875 2.84169975566e-224
89 1 -0.032484375 -0.00125 0.017128125 0.0
90 1 -0.032484375 -0.00125 0.018309375 0.0
91 1 -0.031303125 -0.00125 -0.019490625 0.0
92 1 -0.031303125 -0.00125 -0.018309375 0.0
93 1 -0.031303125 -0.00125 -0.017128125 1.1745391522e-198
94 1 -0.031303125 -0.00125 -0.015946875 1.1040809236e-240
95 1 -0.031303125 -0.00125 -0.014765625 1.05345307379e-183
96 1 -0.031303125 -0.00125 -0.013584375 1.04131867547e-130
97 1 -0.031303125 -0.00125 -0.012403125 6.82738286322e-96
98 1 -0.031303125 -0.00125 -0.011221875 5.27764313776e-98
99 1 -0.031303125 -0.00125 -0.010040625 4.04434589228e-217
100 1 -0.031303125 -0.00125 -0.008859375 0.0
101 1 -0.031303125 -0.00125 -0.007678125 4.59900039801e-115
102 1 -0.031303125 -0.00125 -0.006496875 1.89590216316e-160
103 1 -0.031303125 -0.00125 -0.005315625 0.0
104 1 -0.031303125 -0.00125 -0.004134375 0.0
105 1 -0.031303125 -0.00125 -0.002953125 1.94710481214e-273
106 1 -0.031303125 -0.00125 -0.001771875 2.73077186668e-156
107 1 -0.031303125 -0.00125 -0.000590625 2.21989491712e-183
108 1 -0.031303125 -0.00125 0.000590625 9.90476569293e-227
109 1 -0.031303125 -0.00125 0.001771875 2.1176748067e-219
110 1 -0.031303125 -0.00125 0.002953125 0.0
111 1 -0.031303125 -0.00125 0.004134375 0.0
112 1 -0.031303125 -0.00125 0.005315625 0.0
113 1 -0.031303125 -0.00125 0.006496875 0.0
114 1 -0.031303125 -0.00125 0.007678125 0.0
115 1 -0.031303125 -0.00125 0.008859375 0.0
116 1 -0.031303125 -0.00125 0.010040625 0.0
117 1 -0.031303125 -0.00125 0.011221875 0.0
118 1 -0.031303125 -0.00125 0.012403125 0.0
119 1 -0.031303125 -0.00125 0.013584375 0.0
120 1 -0.031303125 -0.00125 0.014765625 0.0
121 1 -0.031303125 -0.00125 0.015946875 0.0
122 1 -0.031303125 -0.00125 0.017128125 0.0
123 1 -0.031303125 -0.00125 0.018309375 0.0
124 1 -0.031303125 -0.00125 0.019490625 0.0
125 1 -0.030121875 -0.00125 -0.020671875 0.0
126 1 -0.030121875 -0.00125 -0.019490625 0.0
127 1 -0.030121875 -0.00125 -0.018309375 0.0
128 1 -0.030121875 -0.00125 -0.017128125 0.0
129 1 -0.030121875 -0.00125 -0.015946875 0.0
130 1 -0.030121875 -0.00125 -0.014765625 0.0
131 1 -0.030121875 -0.00125 -0.013584375 0.0
132 1 -0.030121875 -0.00125 -0.012403125 2.52938624079e-113
133 1 -0.030121875 -0.00125 -0.011221875 3.04633261234e-152
134 1 -0.030121875 -0.00125 -0.010040625 0.0
135 1 -0.030121875 -0.00125 -0.008859375 0.0
136 1 -0.030121875 -0.00125 -0.007678125 6.49534978425e-166
137 1 -0.030121875 -0.00125 -0.006496875 0.0
138 1 -0.030121875 -0.00125 -0.005315625 2.90459700403e-188
139 1 -0.030121875 -0.00125 -0.004134375 0.0
140 1 -0.030121875 -0.00125 -0.002953125 6.96537517533e-161
141 1 -0.030121875 -0.00125 -0.001771875 0.0
142 1 -0.030121875 -0.00125 -0.000590625 4.76626688545e-304
143 1 -0.030121875 -0.00125 0.000590625 1.33714055753e-223
144 1 -0.030121875 -0.00125 0.001771875 8.81926238824e-231
145 1 -0.030121875 -0.00125 0.002953125 3.87764080548e-165
146 1 -0.030121875 -0.00125 0.004134375 3.93109651778e-126
147 1 -0.030121875 -0.00125 0.005315625 5.52883542255e-238
148 1 -0.030121875 -0.00125 0.006496875 0.0
149 1 -0.030121875 -0.00125 0.007678125 0.0
150 1 -0.030121875 -0.00125 0.008859375 0.0
151 1 -0.030121875 -0.00125 0.010040625 0.0
152 1 -0.030121875 -0.00125 0.011221875 0.0
153 1 -0.030121875 -0.00125 0.012403125 0.0
154 1 -0.030121875 -0.00125 0.013584375 0.0
155 1 -0.030121875 -0.00125 0.014765625 0.0
156 1 -0.030121875 -0.00125 0.015946875 0.0
157 1 -0.030121875 -0.00125 0.017128125 0.0
158 1 -0.030121875 -0.00125 0.018309375 0.0
159 1 -0.030121875 -0.00125 0.019490625 0.0
160 1 -0.030121875 -0.00125 0.020671875 0.0
161 1 -0.028940625 -0.00125 -0.021853125 2.09336072433e-152
162 1 -0.028940625 -0.00125 -0.020671875 0.0
163 1 -0.028940625 -0.00125 -0.019490625 0.0
164 1 -0.028940625 -0.00125 -0.018309375 0.0
165 1 -0.028940625 -0.00125 -0.017128125 0.0
166 1 -0.028940625 -0.00125 -0.015946875 0.0
167 1 -0.028940625 -0.00125 -0.014765625 0.0
168 1 -0.028940625 -0.00125 -0.013584375 0.0
169 1 -0.028940625 -0.00125 -0.012403125 0.0
170 1 -0.028940625 -0.00125 -0.011221875 0.0
171 1 -0.028940625 -0.00125 -0.010040625 4.33170404192e-242
172 1 -0.028940625 -0.00125 -0.008859375 1.25985042785e-259
173 1 -0.028940625 -0.00125 -0.007678125 1.14499665214e-184
174 1 -0.028940625 -0.00125 -0.006496875 1.94606362105e-99
175 1 -0.028940625 -0.00125 -0.005315625 4.30609151488e-93
176 1 -0.028940625 -0.00125 -0.004134375 8.29509018123e-171
177 1 -0.028940625 -0.00125 -0.002953125 4.56063627075e-166
178 1 -0.028940625 -0.00125 -0.001771875 1.01579364013e-187
179 1 -0.028940625 -0.00125 -0.000590625 5.46316258735e-127
180 1 -0.028940625 -0.00125 0.000590625 1.04346497715e-120
181 1 -0.028940625 -0.00125 0.001771875 2.81632191487e-120
182 1 -0.028940625 -0.00125 0.002953125 9.02639897836e-64
183 1 -0.028940625 -0.00125 0.004134375 3.87947454364e-122
184 1 -0.028940625 -0.00125 0.005315625 1.76535613606e-190
185 1 -0.028940625 -0.00125 0.006496875 4.80147709812e-305
186 1 -0.028940625 -0.00125 0.007678125 0.0
187 1 -0.028940625 -0.00125 0.008859375 0.0
188 1 -0.028940625 -0.00125 0.010040625 0.0
189 1 -0.028940625 -0.00125 0.011221875 0.0
190 1 -0.028940625 -0.00125 0.012403125 0.0
191 1 -0.028940625 -0.00125 0.013584375 0.0
192 1 -0.028940625 -0.00125 0.014765625 0.0
193 1 -0.028940625 -0.00125 0.015946875 0.0
194 1 -0.028940625 -0.00125 0.017128125 0.0
195 1 -0.028940625 -0.00125 0.018309375 0.0
196 1 -0.028940625 -0.00125 0.019490625 0.0
197 1 -0.028940625 -0.00125 0.020671875 0.0
198 1 -0.028940625 -0.00125 0.021853125 0.0
199 1 -0.027759375 -0.00125 -0.024215625 0.0
200 1 -0.027759375 -0.00125 -0.023034375 0.0
201 1 -0.027759375 -0.00125 -0.021853125 6.28052484023e-45
202 1 -0.027759375 -0.00125 -0.020671875 4.29180419145e-117
203 1 -0.027759375 -0.00125 -0.019490625 2.12258820863e-111
204 1 -0.027759375 -0.00125 -0.018309375 0.0
205 1 -0.027759375 -0.00125 -0.017128125 0.0
206 1 -0.027759375 -0.00125 -0.015946875 0.0
207 1 -0.027759375 -0.00125 -0.014765625 0.0
208 1 -0.027759375 -0.00125 -0.013584375 0.0
209 1 -0.027759375 -0.00125 -0.012403125 1.35163267062e-93
210 1 -0.027759375 -0.00125 -0.011221875 1.6775322493e-122
211 1 -0.027759375 -0.00125 -0.010040625 5.60800905319e-112
212 1 -0.027759375 -0.00125 -0.008859375 1.45115989855e-115
213 1 -0.027759375 -0.00125 -0.007678125 8.94447226336e-141
214 1 -0.027759375 -0.00125 -0.006496875 5.80070862053e-47
215 1 -0.027759375 -0.00125 -0.005315625 1.94188418777e-45
216 1 -0.027759375 -0.00125 -0.004134375 2.23850406936e-93
217 1 -0.027759375 -0.00125 -0.002953125 5.11825809252e-36
218 1 -0.027759375 -0.00125 -0.001771875 6.65514521571e-78
219 1 -0.027759375 -0.00125 -0.000590625 4.93546949131e-31
220 1 -0.027759375 -0.00125 0.000590625 4.83059795775e-35
221 1 -0.027759375 -0.00125 0.001771875 3.64282273677e-43
222 1 -0.027759375 -0.00125 0.002953125 2.26782830158e-34
223 1 -0.027759375 -0.00125 0.004134375 8.56640291828e-41
224 1 -0.027759375 -0.00125 0.005315625 1.25454278931e-89
225 1 -0.027759375 -0.00125 0.006496875 7.21271023419e-180
226 1 -0.027759375 -0.00125 0.007678125 1.71438425393e-272
227 1 -0.027759375 -0.00125 0.008859375 2.79088482856e-103
228 1 -0.027759375 -0.00125 0.010040625 1.210782004e-147
229 1 -0.027759375 -0.00125 0.011221875 0.0
230 1 -0.027759375 -0.00125 0.012403125 0.0
231 1 -0.027759375 -0.00125 0.013584375 0.0
232 1 -0.027759375 -0.00125 0.014765625 0.0
233 1 -0.027759375 -0.00125 0.015946875 0.0
234 1 -0.027759375 -0.00125 0.017128125 0.0
235 1 -0.027759375 -0.00125 0.018309375 1.25846763236e-199
236 1 -0.027759375 -0.00125 0.019490625 0.0
237 1 -0.027759375 -0.00125 0.020671875 0.0
238 1 -0.027759375 -0.00125 0.021853125 0.0
239 1 -0.027759375 -0.00125 0.023034375 0.0
240 1 -0.027759375 -0.00125 0.024215625 0.0
241 1 -0.026578125 -0.00125 -0.026578125 7.95878224198e-301
242 1 -0.026578125 -0.00125 -0.025396875 0.0
243 1 -0.026578125 -0.00125 -0.024215625 0.0
244 1 -0.026578125 -0.00125 -0.023034375 1.07217920129e-262
245 1 -0.026578125 -0.00125 -0.021853125 1.01965698544e-149
246 1 -0.026578125 -0.00125 -0.020671875 4.62824648703e-101
247 1 -0.026578125 -0.00125 -0.019490625 4.07822826759e-34
248 1 -0.026578125 -0.00125 -0.018309375 2.78309333741e-89
249 1 -0.026578125 -0.00125 -0.017128125 0.0
250 1 -0.026578125 -0.00125 -0.015946875 0.0
251 1 -0.026578125 -0.00125 -0.014765625 0.0
252 1 -0.026578125 -0.00125 -0.013584375 5.41310458398e-291
253 1 -0.026578125 -0.00125 -0.012403125 6.41848608728e-47
254 1 -0.026578125 -0.00125 -0.011221875 1.23485547892e-36
255 1 -0.026578125 -0.00125 -0.010040625 1.7718117266e-54
256 1 -0.026578125 -0.00125 -0.008859375 5.35432156707e-42
257 1 -0.026578125 -0.00125 -0.007678125 1.02782042499e-20
258 1 -0.026578125 -0.00125 -0.006496875 2.74776089684e-18
259 1 -0.026578125 -0.00125 -0.005315625 5.42787953195e-21
260 1 -0.026578125 -0.00125 -0.004134375 4.04755831013e-30
261 1 -0.026578125 -0.00125 -0.002953125 1.4501067041e-35
262 1 -0.026578125 -0.00125 -0.001771875 1.05281551341e-29
263 1 -0.026578125 -0.00125 -0.000590625 2.1496690831e-18
264 1 -0.026578125 -0.00125 0.000590625 6.25130281333e-20
265 1 -0.026578125 -0.00125 0.001771875 2.64701743896e-19
266 1 -0.026578125 -0.00125 0.002953125 6.97876682005e-19
267 1 -0.026578125 -0.00125 0.004134375 6.08011386301e-32
268 1 -0.026578125 -0.00125 0.005315625 9.68003313271e-36
269 1 -0.026578125 -0.00125 0.006496875 4.60118893986e-82
270 1 -0.026578125 -0.00125 0.007678125 1.05178720239e-38
271 1 -0.026578125 -0.00125 0.008859375 1.07874219437e-62
272 1 -0.026578125 -0.00125 0.010040625 2.76288611005e-92
273 1 -0.026578125 -0.00125 0.011221875 2.04140435426e-101
274 1 -0.026578125 -0.00125 0.012403125 2.86331317325e-186
275 1 -0.026578125 -0.00125 0.013584375 1.09609855721e-232
276 1 -0.026578125 -0.00125 0.014765625 1.66448803958e-280
277 1 -0.026578125 -0.00125 0.015946875 0.0
278 1 -0.026578125 -0.00125 0.017128125 1.25576420546e-131
279 1 -0.026578125 -0.00125 0.018309375 7.8695668901e-62
280 1 -0.026578125 -0.00125 0.019490625 6.9292335867e-114
281 1 -0.026578125 -0.00125 0.020671875 0.0
282 1 -0.026578125 -0.00125 0.021853125 0.0
283 1 -0.026578125 -0.00125 0.023034375 0.0
284 1 -0.026578125 -0.00125 0.024215625 0.0
285 1 -0.026578125 -0.00125 0.025396875 0.0
286 1 -0.026578125 -0.00125 0.026578125 0.0
287 1 -0.025396875 -0.00125 -0.026578125 0.0
288 1 -0.025396875 -0.00125 -0.025396875 0.0
289 1 -0.025396875 -0.00125 -0.024215625 0.0
290 1 -0.025396875 -0.00125 -0.023034375 0.0
291 1 -0.025396875 -0.00125 -0.021853125 2.89724210647e-166
292 1 -0.025396875 -0.00125 -0.020671875 1.0255663513e-86
293 1 -0.025396875 -0.00125 -0.019490625 2.22138493231e-55
294 1 -0.025396875 -0.00125 -0.018309375 1.105963294e-200
295 1 -0.025396875 -0.00125 -0.017128125 0.0
296 1 -0.025396875 -0.00125 -0.015946875 0.0
297 1 -0.025396875 -0.00125 -0.014765625 1.11634422479e-189
298 1 -0.025396875 -0.00125 -0.013584375 5.90263341632e-84
299 1 -0.025396875 -0.00125 -0.012403125 3.58800654178e-22
300 1 -0.025396875 -0.00125 -0.011221875 6.5176344047e-22
301 1 -0.025396875 -0.00125 -0.010040625 7.57921935432e-11
302 1 -0.025396875 -0.00125 -0.008859375 4.3257095674e-12
303 1 -0.025396875 -0.00125 -0.007678125 1.64497927519e-15
304 1 -0.025396875 -0.00125 -0.006496875 2.18843539887e-23
305 1 -0.025396875 -0.00125 -0.005315625 3.01638925709e-16
306 1 -0.025396875 -0.00125 -0.004134375 6.11580311303e-24
307 1 -0.025396875 -0.00125 -0.002953125 1.11999313225e-20
308 1 -0.025396875 -0.00125 -0.001771875 5.28021202372e-18
309 1 -0.025396875 -0.00125 -0.000590625 3.24510630099e-23
310 1 -0.025396875 -0.00125 0.000590625 2.47425200041e-16
311 1 -0.025396875 -0.00125 0.001771875 1.6203590435e-17
312 1 -0.025396875 -0.00125 0.002953125 2.76991545654e-12
313 1 -0.025396875 -0.00125 0.004134375 7.67631997686e-11
314 1 -0.025396875 -0.00125 0.005315625 1.91738786749e-15
315 1 -0.025396875 -0.00125 0.006496875 2.80324757921e-31
316 1 -0.025396875 -0.00125 0.007678125 1.81992399223e-23
317 1 -0.025396875 -0.00125 0.008859375 4.05095383528e-26
318 1 -0.025396875 -0.00125 0.010040625 1.16931315705e-21
319 1 -0.025396875 -0.00125 0.011221875 1.91334891537e-32
320 1 -0.025396875 -0.00125 0.012403125 3.74635849864e-54
321 1 -0.025396875 -0.00125 0.013584375 3.31832235287e-66
322 1 -0.025396875 -0.00125 0.014765625 3.3245624093e-88
323 1 -0.025396875 -0.00125 0.015946875 3.53245038438e-73
324 1 -0.025396875 -0.00125 0.017128125 5.83179904479e-40
325 1 -0.025396875 -0.00125 0.018309375 3.66633296747e-53
326 1 -0.025396875 -0.00125 0.019490625 6.03055481378e-53
327 1 -0.025396875 -0.00125 0.020671875 2.77984925237e-185
328 1 -0.025396875 -0.00125 0.021853125 0.0
329 1 -0.025396875 -0.00125 0.023034375 0.0
330 1 -0.025396875 -0.00125 0.024215625 0.0
331 1 -0.025396875 -0.00125 0.025396875 0.0
332 1 -0.025396875 -0.00125 0.026578125 0.0
333 1 -0.024215625 -0.00125 -0.027759375 7.02644182222e-95
334 1 -0.024215625 -0.00125 -0.026578125 0.0
335 1 -0.024215625 -0.00125 -0.025396875 0.0
336 1 -0.024215625 -0.00125 -0.024215625 3.0026215562e-207
337 1 -0.024215625 -0.00125 -0.023034375 4.71642323475e-223
338 1 -0.024215625 -0.00125 -0.021853125 2.53891129325e-137
339 1 -0.024215625 -0.00125 -0.020671875 7.06161023805e-89
340 1 -0.024215625 -0.00125 -0.019490625 2.7560691213e-69
341 1 -0.024215625 -0.00125 -0.018309375 1.07744809465e-165
342 1 -0.024215625 -0.00125 -0.017128125 0.0
343 1 -0.024215625 -0.00125 -0.015946875 8.87777473679e-160
344 1 -0.024215625 -0.00125 -0.014765625 5.30659506787e-44
345 1 -0.024215625 -0.00125 -0.013584375 1.65784256847e-21
346 1 -0.024215625 -0.00125 -0.012403125 6.0905758397e-08
347 1 -0.024215625 -0.00125 -0.011221875 4.17354697255e-08
348 1 -0.024215625 -0.00125 -0.010040625 1.88958553045e-06
349 1 -0.024215625 -0.00125 -0.008859375 7.01520801611e-10
350 1 -0.024215625 -0.00125 -0.007678125 4.84980692446e-14
351 1 -0.024215625 -0.00125 -0.006496875 1.71143300629e-09
352 1 -0.024215625 -0.00125 -0.005315625 3.800080757e-08
353 1 -0.024215625 -0.00125 -0.004134375 9.75714513363e-07
354 1 -0.024215625 -0.00125 -0.002953125 5.408468934e-14
355 1 -0.024215625 -0.00125 -0.001771875 5.2358749795e-12
356 1 -0.024215625 -0.00125 -0.000590625 5.41378946533e-09
357 1 -0.024215625 -0.00125 0.000590625 1.73112695421e-07
358 1 -0.024215625 -0.00125 0.001771875 1.23579710041e-08
359 1 -0.024215625 -0.00125 0.002953125 6.96342178578e-05
360 1 -0.024215625 -0.00125 0.004134375 7.77308512445e-07
361 1 -0.024215625 -0.00125 0.005315625 1.99073137915e-09
362 1 -0.024215625 -0.00125 0.006496875 1.46116065807e-22
363 1 -0.024215625 -0.00125 0.007678125 6.76397981914e-17
364 1 -0.024215625 -0.00125 0.008859375 8.92463504219e-18
365 1 -0.024215625 -0.00125 0.010040625 1.66023936704e-13
366 1 -0.024215625 -0.00125 0.011221875 9.89770448815e-19
367 1 -0.024215625 -0.00125 0.012403125 5.88059992835e-15
368 1 -0.024215625 -0.00125 0.013584375 1.52616876648e-36
369 1 -0.024215625 -0.00125 0.014765625 4.06998145898e-26
370 1 -0.024215625 -0.00125 0.015946875 3.30468562656e-36
371 1 -0.024215625 -0.00125 0.017128125 1.70397510632e-30
372 1 -0.024215625 -0.00125 0.018309375 2.07966430239e-34
373 1 -0.024215625 -0.00125 0.019490625 2.261468608e-110
374 1 -0.024215625 -0.00125 0.020671875 0.0
375 1 -0.024215625 -0.00125 0.021853125 0.0
376 1 -0.024215625 -0.00125 0.023034375 0.0
377 1 -0.024215625 -0.00125 0.024215625 0.0
378 1 -0.024215625 -0.00125 0.025396875 0.0
379 1 -0.024215625 -0.00125 0.026578125 0.0
380 1 -0.024215625 -0.00125 0.027759375 0.0
381 1 -0.023034375 -0.00125 -0.027759375 2.27242915574e-190
382 1 -0.023034375 -0.00125 -0.026578125 3.32293637421e-141
383 1 -0.023034375 -0.00125 -0.025396875 0.0
384 1 -0.023034375 -0.00125 -0.024215625 3.17413527375e-187
385 1 -0.023034375 -0.00125 -0.023034375 2.57953447593e-119
386 1 -0.023034375 -0.00125 -0.021853125 1.23538648551e-50
387 1 -0.023034375 -0.00125 -0.020671875 6.09590463486e-53
388 1 -0.023034375 -0.00125 -0.019490625 2.224630459e-68
389 1 -0.023034375 -0.00125 -0.018309375 9.87711726427e-81
390 1 -0.023034375 -0.00125 -0.017128125 8.19714468308e-75
391 1 -0.023034375 -0.00125 -0.015946875 2.44194121528e-29
392 1 -0.023034375 -0.00125 -0.014765625 4.74598559575e-18
393 1 -0.023034375 -0.00125 -0.013584375 1.11633329882e-11
394 1 -0.023034375 -0.00125 -0.012403125 5.34750003495e-09
395 1 -0.023034375 -0.00125 -0.011221875 3.04519388735e-07
396 1 -0.023034375 -0.00125 -0.010040625 5.20000780616e-06
397 1 -0.023034375 -0.00125 -0.008859375 3.2660206515e-08
398 1 -0.023034375 -0.00125 -0.007678125 6.19350424971e-09
399 1 -0.023034375 -0.00125 -0.006496875 1.62140090329e-06
400 1 -0.023034375 -0.00125 -0.005315625 6.1134109734e-07
401 1 -0.023034375 -0.00125 -0.004134375 1.79034987405e-09
402 1 -0.023034375 -0.00125 -0.002953125 4.97335455778e-07
403 1 -0.023034375 -0.00125 -0.001771875 6.45494426059e-08
404 1 -0.023034375 -0.00125 -0.000590625 2.99502079662e-05
405 1 -0.023034375 -0.00125 0.000590625 2.9897626116e-06
406 1 -0.023034375 -0.00125 0.001771875 4.99664046432e-07
407 1 -0.023034375 -0.00125 0.002953125 4.48267159541e-05
408 1 -0.023034375 -0.00125 0.004134375 3.69471769588e-07
409 1 -0.023034375 -0.00125 0.005315625 7.83711503455e-31
410 1 -0.023034375 -0.00125 0.006496875 5.97404749724e-11
411 1 -0.023034375 -0.00125 0.007678125 6.57978673996e-11
412 1 -0.023034375 -0.00125 0.008859375 1.54737583573e-13
413 1 -0.023034375 -0.00125 0.010040625 4.91478156503e-21
414 1 -0.023034375 -0.00125 0.011221875 2.66544377116e-23
415 1 -0.023034375 -0.00125 0.012403125 9.03280354605e-20
416 1 -0.023034375 -0.00125 0.013584375 9.19971002277e-23
417 1 -0.023034375 -0.00125 0.014765625 1.91931313518e-16
418 1 -0.023034375 -0.00125 0.015946875 1.28960761936e-30
419 1 -0.023034375 -0.00125 0.017128125 1.17959206034e-33
420 1 -0.023034375 -0.00125 0.018309375 1.31694861462e-30
421 1 -0.023034375 -0.00125 0.019490625 2.74652113596e-30
422 1 -0.023034375 -0.00125 0.020671875 1.60871727889e-89
423 1 -0.023034375 -0.00125 0.021853125 0.0
424 1 -0.023034375 -0.00125 0.023034375 0.0
425 1 -0.023034375 -0.00125 0.024215625 0.0
426 1 -0.023034375 -0.00125 0.025396875 0.0
427 1 -0.023034375 -0.00125 0.026578125 0.0
428 1 -0.023034375 -0.00125 0.027759375 0.0
429 1 -0.021853125 -0.00125 -0.028940625 1.33033339609e-73
430 1 -0.021853125 -0.00125 -0.027759375 3.52473658958e-59
431 1 -0.021853125 -0.00125 -0.026578125 1.4629303672e-158
432 1 -0.021853125 -0.00125 -0.025396875 4.1263909482e-138
433 1 -0.021853125 -0.00125 -0.024215625 9.85695582877e-89
434 1 -0.021853125 -0.00125 -0.023034375 1.8029619062e-55
435 1 -0.021853125 -0.00125 -0.021853125 1.30662621365e-16
436 1 -0.021853125 -0.00125 -0.020671875 3.21175700382e-28
437 1 -0.021853125 -0.00125 -0.019490625 4.43303131561e-59
438 1 -0.021853125 -0.00125 -0.018309375 9.70043741085e-52
439 1 -0.021853125 -0.00125 -0.017128125 1.06256464464e-23
440 1 -0.021853125 -0.00125 -0.015946875 1.43891692545e-12
441 1 -0.021853125 -0.00125 -0.014765625 2.04697293492e-08
442 1 -0.021853125 -0.00125 -0.013584375 4.70231794667e-08
443 1 -0.021853125 -0.00125 -0.012403125 1.63283867187e-06
444 1 -0.021853125 -0.00125 -0.011221875 3.70330425914e-05
445 1 -0.021853125 -0.00125 -0.010040625 1.12837716775e-06
446 1 -0.021853125 -0.00125 -0.008859375 2.45508107781e-06
447 1 -0.021853125 -0.00125 -0.007678125 0.00152830717303
448 1 -0.021853125 -0.00125 -0.006496875 0.00106462767539
449 1 -0.021853125 -0.00125 -0.005315625 9.11277451379e-06
450 1 -0.021853125 -0.00125 -0.004134375 0.000193277852877
451 1 -0.021853125 -0.00125 -0.002953125 2.56626258288e-05
452 1 -0.021853125 -0.00125 -0.001771875 2.09214289193e-05
453 1 -0.021853125 -0.00125 -0.000590625 0.000344446942701
454 1 -0.021853125 -0.00125 0.000590625 6.13100259634e-06
455 1 -0.021853125 -0.00125 0.001771875 1.74634512287e-08
456 1 -0.021853125 -0.00125 0.002953125 6.27048979841e-08
457 1 -0.021853125 -0.00125 0.004134375 7.34722597437e-09
458 1 -0.021853125 -0.00125 0.005315625 7.12675560907e-09
459 1 -0.021853125 -0.00125 0.006496875 1.47389711357e-08
460 1 -0.021853125 -0.00125 0.007678125 8.4633547936e-12
461 1 -0.021853125 -0.00125 0.008859375 2.44698314118e-08
462 1 -0.021853125 -0.00125 0.010040625 1.96838030837e-14
463 1 -0.021853125 -0.00125 0.011221875 1.65378903182e-18
464 1 -0.021853125 -0.00125 0.012403125 1.50708286863e-14
465 1 -0.021853125 -0.00125 0.013584375 7.11747254737e-18
466 1 -0.021853125 -0.00125 0.014765625 1.18837826898e-13
467 1 -0.021853125 -0.00125 0.015946875 2.01555925223e-19
468 1 -0.021853125 -0.00125 0.017128125 1.55045298625e-18
469 1 -0.021853125 -0.00125 0.018309375 3.32476696266e-21
470 1 -0.021853125 -0.00125 0.019490625 7.9874510233e-23
471 1 -0.021853125 -0.00125 0.020671875 1.28104592542e-79
472 1 -0.021853125 -0.00125 0.021853125 1.8806510185e-233
473 1 -0.021853125 -0.00125 0.023034375 0.0
474 1 -0.021853125 -0.00125 0.024215625 0.0
475 1 -0.021853125 -0.00125 0.025396875 0.0
476 1 -0.021853125 -0.00125 0.026578125 0.0
477 1 -0.021853125 -0.00125 0.027759375 0.0
478 1 -0.021853125 -0.00125 0.028940625 0.0
479 1 -0.020671875 -0.00125 -0.030121875 4.1654152895e-128
480 1 -0.020671875 -0.00125 -0.028940625 1.46223527585e-75
481 1 -0.020671875 -0.00125 -0.027759375 1.13525695282e-88
482 1 -0.020671875 -0.00125 -0.026578125 1.7330110147e-65
483 1 -0.020671875 -0.00125 -0.025396875 1.84747676375e-110
484 1 -0.020671875 -0.00125 -0.024215625 5.0059097531e-53
485 1 -0.020671875 -0.00125 -0.023034375 2.44997997265e-42
486 1 -0.020671875 -0.00125 -0.021853125 1.93554299764e-22
487 1 -0.020671875 -0.00125 -0.020671875 3.70839603102e-21
488 1 -0.020671875 -0.00125 -0.019490625 9.00039632538e-26
489 1 -0.020671875 -0.00125 -0.018309375 2.24716010642e-21
490 1 -0.020671875 -0.00125 -0.017128125 2.09009878288e-13
491 1 -0.020671875 -0.00125 -0.015946875 1.50897887385e-13
492 1 -0.020671875 -0.00125 -0.014765625 1.24797750609e-07
493 1 -0.020671875 -0.00125 -0.013584375 4.76833770694e-08
494 1 -0.020671875 -0.00125 -0.012403125 3.00197084135e-05
495 1 -0.020671875 -0.00125 -0.011221875 3.79103854864e-07
496 1 -0.020671875 -0.00125 -0.010040625 9.53156943275e-06
497 1 -0.020671875 -0.00125 -0.008859375 6.70293841061e-06
498 1 -0.020671875 -0.00125 -0.007678125 0.000466098705336
499 1 -0.020671875 -0.00125 -0.006496875 0.000398624068985
500 1 -0.020671875 -0.00125 -0.005315625 1.65989206119e-05
501 1 -0.020671875 -0.00125 -0.004134375 3.67676034696e-05
502 1 -0.020671875 -0.00125 -0.002953125 5.98511601795e-07
503 1 -0.020671875 -0.00125 -0.001771875 2.65526507308e-05
504 1 -0.020671875 -0.00125 -0.000590625 1.29003839885e-05
505 1 -0.020671875 -0.00125 0.000590625 2.85155411446e-06
506 1 -0.020671875 -0.00125 0.001771875 7.99238891501e-11
507 1 -0.020671875 -0.00125 0.002953125 6.94504398531e-12
508 1 -0.020671875 -0.00125 0.004134375 7.41466510135e-14
509 1 -0.020671875 -0.00125 0.005315625 3.82460395284e-09
510 1 -0.020671875 -0.00125 0.006496875 1.28001903237e-10
511 1 -0.020671875 -0.00125 0.007678125 5.7150561793e-10
512 1 -0.020671875 -0.00125 0.008859375 2.51562156422e-07
513 1 -0.020671875 -0.00125 0.010040625 2.49905900599e-18
514 1 -0.020671875 -0.00125 0.011221875 1.01722763264e-12
515 1 -0.020671875 -0.00125 0.012403125 3.25835521702e-11
516 1 -0.020671875 -0.00125 0.013584375 1.47026790049e-12
517 1 -0.020671875 -0.00125 0.014765625 1.55712132708e-07
518 1 -0.020671875 -0.00125 0.015946875 2.74927993886e-08
519 1 -0.020671875 -0.00125 0.017128125 1.90521835294e-08
520 1 -0.020671875 -0.00125 0.018309375 1.26755509739e-12
521 1 -0.020671875 -0.00125 0.019490625 4.63217479165e-15
522 1 -0.020671875 -0.00125 0.020671875 7.3324880545e-54
523 1 -0.020671875 -0.00125 0.021853125 1.20607378204e-101
524 1 -0.020671875 -0.00125 0.023034375 1.08401695398e-234
525 1 -0.020671875 -0.00125 0.024215625 0.0
526 1 -0.020671875 -0.00125 0.025396875 0.0
527 1 -0.020671875 -0.00125 0.026578125 0.0
528 1 -0.020671875 -0.00125 0.027759375 0.0
529 1 -0.020671875 -0.00125 0.028940625 0.0
530 1 -0.020671875 -0.00125 0.030121875 0.0
531 1 -0.019490625 -0.00125 -0.031303125 3.05378840206e-32
532 1 -0.019490625 -0.00125 -0.030121875 1.171499124e-40
533 1 -0.019490625 -0.00125 -0.028940625 1.53194942078e-33
534 1 -0.019490625 -0.00125 -0.027759375 1.15134332288e-29
535 1 -0.019490625 -0.00125 -0.026578125 6.6654830036e-20
536 1 -0.019490625 -0.00125 -0.025396875 3.43786720723e-17
537 1 -0.019490625 -0.00125 -0.024215625 1.47469347728e-23
538 1 -0.019490625 -0.00125 -0.023034375 1.06445774784e-26
539 1 -0.019490625 -0.00125 -0.021853125 4.66338704122e-21
540 1 -0.019490625 -0.00125 -0.020671875 1.44504484138e-15
541 1 -0.019490625 -0.00125 -0.019490625 2.66709279962e-10
542 1 -0.019490625 -0.00125 -0.018309375 6.69142529377e-09
543 1 -0.019490625 -0.00125 -0.017128125 1.47809009684e-08
544 1 -0.019490625 -0.00125 -0.015946875 7.94508339808e-08
545 1 -0.019490625 -0.00125 -0.014765625 1.2785840351e-07
546 1 -0.019490625 -0.00125 -0.013584375 4.3645116946e-08
547 1 -0.019490625 -0.00125 -0.012403125 3.14303898251e-08
548 1 -0.019490625 -0.00125 -0.011221875 1.51192002884e-05
549 1 -0.019490625 -0.00125 -0.010040625 3.48548151009e-05
550 1 -0.019490625 -0.00125 -0.008859375 2.95001809341e-06
551 1 -0.019490625 -0.00125 -0.007678125 4.64333935019e-05
552 1 -0.019490625 -0.00125 -0.006496875 0.000121599010766
553 1 -0.019490625 -0.00125 -0.005315625 0.00150887647141
554 1 -0.019490625 -0.00125 -0.004134375 1.09856505903e-05
555 1 -0.019490625 -0.00125 -0.002953125 4.71830852486e-08
556 1 -0.019490625 -0.00125 -0.001771875 1.27763415998e-08