ITEM: TIMESTEP
0
ITEM: NUMBER OF ATOMS
3080
ITEM: BOX BOUNDS ss ss ss
-3.7007399999999996e-02 3.7007399999999996e-02
-2.0002499999999999e-03 2.5000000000000004e-07
-3.7007399999999996e-02 3.7007399999999996e-02
ITEM: ATOMS id type x y z c_1
0 1 -0.037209375 -0.00125 -0.000590625 0.999999998056
1 1 -0.036028125 -0.00125 -0.007678125 5.449034215e-95
2 1 -0.036028125 -0.00125 -0.006496875 0.0
3 1 -0.036028125 -0.00125 -0.005315625 0.0
4 1 -0.036028125 -0.00125 -0.004134375 0.0
5 1 -0.036028125 -0.00125 -0.002953125 1.55790107505e-44
6 1 -0.036028125 -0.00125 -0.001771875 6.28803107389e-14
7 1 -0.036028125 -0.00125 -0.000590625 5.66385690381e-12
8 1 -0.036028125 -0.00125 0.000590625 1.43577537483e-73
9 1 -0.036028125 -0.00125 0.001771875 4.31115941041e-26
10 1 -0.036028125 -0.00125 0.002953125 1.09640584061e-191
11 1 -0.036028125 -0.00125 0.004134375 0.0
12 1 -0.036028125 -0.00125 0.005315625 0.0
13 1 -0.036028125 -0.00125 0.006496875 0.0
14 1 -0.036028125 -0.00125 0.007678125 4.64109807095e-243
15 1 -0.034846875 -0.00125 -0.011221875 2.18078085359e-07
16 1 -0.034846875 -0.00125 -0.010040625 5.39554919324e-30
17 1 -0.034846875 -0.00125 -0.008859375 2.5782406713e-16
18 1 -0.034846875 -0.00125 -0.007678125 5.24151794765e-158
19 1 -0.034846875 -0.00125 -0.006496875 2.2430531238e-203
20 1 -0.034846875 -0.00125 -0.005315625 0.0
21 1 -0.034846875 -0.00125 -0.004134375 0.0
22 1 -0.034846875 -0.00125 -0.002953125 3.25413847036e-78
23 1 -0.034846875 -0.00125 -0.001771875 1.5551087798e-41
24 1 -0.034846875 -0.00125 -0.000590625 1.39099470772e-28
25 1 -0.034846875 -0.00125 0.000590625 1.14927345244e-122
26 1 -0.034846875 -0.00125 0.001771875 1.43870043345e-249
27 1 -0.034846875 -0.00125 0.002953125 0.0
28 1 -0.034846875 -0.00125 0.004134375 0.0
29 1 -0.034846875 -0.00125 0.005315625 0.0
30 1 -0.034846875 -0.00125 0.006496875 0.0
31 1 -0.034846875 -0.00125 0.007678125 0.0
32 1 -0.034846875 -0.00125 0.008859375 4.24605117204e-48
33 1 -0.034846875 -0.00125 0.010040625 2.81780810098e-265
34 1 -0.034846875 -0.00125 0.011221875 1.03441524401e-154
35 1 -0.033665625 -0.00125 -0.013584375 7.29247826382e-25
36 1 -0.033665625 -0.00125 -0.012403125 5.50401511023e-05
37 1 -0.033665625 -0.00125 -0.011221875 1.62230966207e-08
38 1 -0.033665625 -0.00125 -0.010040625 7.86107662284e-22
39 1 -0.033665625 -0.00125 -0.008859375 4.06834745654e-28
40 1 -0.033665625 -0.00125 -0.007678125 5.84245826474e-71
41 1 -0.033665625 -0.00125 -0.006496875 5.80664445752e-223
42 1 -0.033665625 -0.00125 -0.005315625 0.0
43 1 -0.033665625 -0.00125 -0.004134375 1.67815145643e-283
44 1 -0.033665625 -0.00125 -0.002953125 5.49763352574e-273
45 1 -0.033665625 -0.00125 -0.001771875 8.20177048338e-75
46 1 -0.033665625 -0.00125 -0.000590625 5.27019247524e-31
47 1 -0.033665625 -0.00125 0.000590625 6.05018025107e-112
48 1 -0.033665625 -0.00125 0.001771875 1.54550358275e-272
49 1 -0.033665625 -0.00125 0.002953125 0.0
50 1 -0.033665625 -0.00125 0.004134375 0.0
51 1 -0.033665625 -0.00125 0.005315625 0.0
52 1 -0.033665625 -0.00125 0.006496875 0.0
53 1 -0.033665625 -0.00125 0.007678125 1.8719009975e-301
54 1 -0.033665625 -0.00125 0.008859375 2.08545623077e-75
55 1 -0.033665625 -0.00125 0.010040625 2.3798181311e-149
56 1 -0.033665625 -0.00125 0.011221875 4.41855165233e-155
57 1 -0.033665625 -0.00125 0.012403125 1.05568672692e-60
58 1 -0.033665625 -0.00125 0.013584375 0.0
59 1 -0.032484375 -0.00125 -0.018309375 4.746084452e-49
60 1 -0.032484375 -0.00125 -0.017128125 4.28629631715e-54
61 1 -0.032484375 -0.00125 -0.015946875 1.47711723948e-21
62 1 -0.032484375 -0.00125 -0.014765625 2.61161655503e-35
63 1 -0.032484375 -0.00125 -0.013584375 8.88978772472e-40
64 1 -0.032484375 -0.00125 -0.012403125 5.4655326784e-17
65 1 -0.032484375 -0.00125 -0.011221875 1.39599272952e-14
66 1 -0.032484375 -0.00125 -0.010040625 2.38028542622e-40
67 1 -0.032484375 -0.00125 -0.008859375 3.27202964152e-37
68 1 -0.032484375 -0.00125 -0.007678125 9.67149387868e-37
69 1 -0.032484375 -0.00125 -0.006496875 2.66118048739e-86
70 1 -0.032484375 -0.00125 -0.005315625 6.84188391604e-145
71 1 -0.032484375 -0.00125 -0.004134375 1.72636018149e-235
72 1 -0.032484375 -0.00125 -0.002953125 1.40983211665e-182
73 1 -0.032484375 -0.00125 -0.001771875 7.20918886365e-71
74 1 -0.032484375 -0.00125 -0.000590625 3.99755484431e-57
75 1 -0.032484375 -0.00125 0.000590625 1.32963458608e-75
76 1 -0.032484375 -0.00125 0.001771875 3.13275830713e-49
77 1 -0.032484375 -0.00125 0.002953125 4.18931097954e-270
78 1 -0.032484375 -0.00125 0.004134375 0.0
79 1 -0.032484375 -0.00125 0.005315625 0.0
80 1 -0.032484375 -0.00125 0.006496875 0.0
81 1 -0.032484375 -0.00125 0.007678125 6.96763295923e-254
82 1 -0.032484375 -0.00125 0.008859375 1.98771843173e-98
83 1 -0.032484375 -0.00125 0.010040625 1.01953352518e-126
84 1 -0.032484375 -0.00125 0.011221875 8.90575459688e-100
85 1 -0.032484375 -0.00125 0.012403125 2.32394907897e-179
86 1 -0.032484375 -0.00125 0.013584375 0.0
87 1 -0.032484375 -0.00125 0.014765625 1.75229126316e-159
88 1 -0.032484375 -0.00125 0.015946875 1.51170980936e-52
89 1 -0.032484375 -0.00125 0.017128125 3.15080940579e-93
90 1 -0.032484375 -0.00125 0.018309375 8.62186569374e-113
91 1 -0.031303125 -0.00125 -0.019490625 4.80000022266e-167
92 1 -0.031303125 -0.00125 -0.018309375 9.05178637615e-71
93 1 -0.031303125 -0.00125 -0.017128125 1.52716280292e-32
94 1 -0.031303125 -0.00125 -0.015946875 8.87258018177e-39
95 1 -0.031303125 -0.00125 -0.014765625 2.46537534023e-41
96 1 -0.031303125 -0.00125 -0.013584375 1.43194511722e-45
97 1 -0.031303125 -0.00125 -0.012403125 4.18997827277e-32
98 1 -0.031303125 -0.00125 -0.011221875 2.90534945364e-29
99 1 -0.031303125 -0.00125 -0.010040625 2.0368465958e-41
100 1 -0.031303125 -0.00125 -0.008859375 2.99380962484e-66
101 1 -0.031303125 -0.00125 -0.007678125 3.8522755264e-36
102 1 -0.031303125 -0.00125 -0.006496875 4.59835956053e-41
103 1 -0.031303125 -0.00125 -0.005315625 3.02241277152e-62
104 1 -0.031303125 -0.00125 -0.004134375 4.25522169079e-95
105 1 -0.031303125 -0.00125 -0.002953125 8.30855048817e-71
106 1 -0.031303125 -0.00125 -0.001771875 1.17786890102e-48
107 1 -0.031303125 -0.00125 -0.000590625 3.63687862291e-47
108 1 -0.031303125 -0.00125 0.000590625 3.10672911758e-50
109 1 -0.031303125 -0.00125 0.001771875 1.17734874434e-55
110 1 -0.031303125 -0.00125 0.002953125 3.42164379966e-82
111 1 -0.031303125 -0.00125 0.004134375 1.30848834884e-88
112 1 -0.031303125 -0.00125 0.005315625 1.98195686171e-109
113 1 -0.031303125 -0.00125 0.006496875 1.12167246108e-160
114 1 -0.031303125 -0.00125 0.007678125 4.47361424218e-142
115 1 -0.031303125 -0.00125 0.008859375 8.84467016176e-179
116 1 -0.031303125 -0.00125 0.010040625 1.05718281729e-201
117 1 -0.031303125 -0.00125 0.011221875 3.85095785818e-156
118 1 -0.031303125 -0.00125 0.012403125 3.56294928651e-104
119 1 -0.031303125 -0.00125 0.013584375 5.22262782091e-305
120 1 -0.031303125 -0.00125 0.014765625 2.26413784679e-197
121 1 -0.031303125 -0.00125 0.015946875 1.40489084162e-170
122 1 -0.031303125 -0.00125 0.017128125 3.00699829017e-297
123 1 -0.031303125 -0.00125 0.018309375 4.41722686852e-188
124 1 -0.031303125 -0.00125 0.019490625 3.98461145212e-222
125 1 -0.030121875 -0.00125 -0.020671875 2.54140706232e-217
126 1 -0.030121875 -0.00125 -0.019490625 1.20323348851e-89
127 1 -0.030121875 -0.00125 -0.018309375 2.4336881987e-98
128 1 -0.030121875 -0.00125 -0.017128125 1.02294351855e-55
129 1 -0.030121875 -0.00125 -0.015946875 3.32518933822e-116
130 1 -0.030121875 -0.00125 -0.014765625 1.54749627164e-80
131 1 -0.030121875 -0.00125 -0.013584375 8.05789227148e-98
132 1 -0.030121875 -0.00125 -0.012403125 1.93184921178e-36
133 1 -0.030121875 -0.00125 -0.011221875 1.4131407917e-44
134 1 -0.030121875 -0.00125 -0.010040625 8.45876077988e-72
135 1 -0.030121875 -0.00125 -0.008859375 8.31731685679e-101
136 1 -0.030121875 -0.00125 -0.007678125 9.70651077291e-52
137 1 -0.030121875 -0.00125 -0.006496875 9.55143590291e-74
138 1 -0.030121875 -0.00125 -0.005315625 1.22658510887e-40
139 1 -0.030121875 -0.00125 -0.004134375 8.92098235271e-117
140 1 -0.030121875 -0.00125 -0.002953125 5.25821593308e-49
141 1 -0.030121875 -0.00125 -0.001771875 2.14293795219e-96
142 1 -0.030121875 -0.00125 -0.000590625 6.00078024071e-65
143 1 -0.030121875 -0.00125 0.000590625 5.7752763121e-52
144 1 -0.030121875 -0.00125 0.001771875 7.14005025735e-57
145 1 -0.030121875 -0.00125 0.002953125 7.28031737085e-38
146 1 -0.030121875 -0.00125 0.004134375 7.6531629922e-29
147 1 -0.030121875 -0.00125 0.005315625 3.61220889969e-51
148 1 -0.030121875 -0.00125 0.006496875 2.71554744458e-134
149 1 -0.030121875 -0.00125 0.007678125 3.69348067327e-143
150 1 -0.030121875 -0.00125 0.008859375 1.44619741884e-181
151 1 -0.030121875 -0.00125 0.010040625 3.2863165267e-96
152 1 -0.030121875 -0.00125 0.011221875 8.42834083624e-181
153 1 -0.030121875 -0.00125 0.012403125 3.24033081417e-123
154 1 -0.030121875 -0.00125 0.013584375 2.78519619975e-108
155 1 -0.030121875 -0.00125 0.014765625 1.21418453535e-115
156 1 -0.030121875 -0.00125 0.015946875 4.12438404996e-167
157 1 -0.030121875 -0.00125 0.017128125 2.37727682827e-156
158 1 -0.030121875 -0.00125 0.018309375 1.13821300783e-204
159 1 -0.030121875 -0.00125 0.019490625 0.0
160 1 -0.030121875 -0.00125 0.020671875 0.0
161 1 -0.028940625 -0.00125 -0.021853125 4.33894529441e-11
162 1 -0.028940625 -0.00125 -0.020671875 1.11620272867e-26
163 1 -0.028940625 -0.00125 -0.019490625 2.03581100946e-38
164 1 -0.028940625 -0.00125 -0.018309375 2.26579949894e-99
165 1 -0.028940625 -0.00125 -0.017128125 5.19087862949e-138
166 1 -0.028940625 -0.00125 -0.015946875 8.80119925415e-95
167 1 -0.028940625 -0.00125 -0.014765625 8.15940389366e-81
168 1 -0.028940625 -0.00125 -0.013584375 9.83631761901e-113
169 1 -0.028940625 -0.00125 -0.012403125 9.52169389702e-107
170 1 -0.028940625 -0.00125 -0.011221875 7.34734426653e-81
171 1 -0.028940625 -0.00125 -0.010040625 6.7404624622e-59
172 1 -0.028940625 -0.00125 -0.008859375 5.94134777097e-67
173 1 -0.028940625 -0.00125 -0.007678125 7.93531510418e-57
174 1 -0.028940625 -0.00125 -0.006496875 1.03007152952e-34
175 1 -0.028940625 -0.00125 -0.005315625 9.60546368601e-31
176 1 -0.028940625 -0.00125 -0.004134375 8.30594062659e-38
177 1 -0.028940625 -0.00125 -0.002953125 9.53097936308e-38
178 1 -0.028940625 -0.00125 -0.001771875 3.38585804323e-40
179 1 -0.028940625 -0.00125 -0.000590625 2.08583969247e-31
180 1 -0.028940625 -0.00125 0.000590625 2.35544426886e-27
181 1 -0.028940625 -0.00125 0.001771875 4.83810076739e-26
182 1 -0.028940625 -0.00125 0.002953125 6.26582085598e-17
183 1 -0.028940625 -0.00125 0.004134375 1.75441986126e-27
184 1 -0.028940625 -0.00125 0.005315625 1.30168810711e-41
185 1 -0.028940625 -0.00125 0.006496875 3.7439009333e-52
186 1 -0.028940625 -0.00125 0.007678125 1.32744427799e-90
187 1 -0.028940625 -0.00125 0.008859375 7.15411975051e-124
188 1 -0.028940625 -0.00125 0.010040625 5.77737236449e-153
189 1 -0.028940625 -0.00125 0.011221875 3.01409367382e-122
190 1 -0.028940625 -0.00125 0.012403125 3.1674001234e-149
191 1 -0.028940625 -0.00125 0.013584375 4.09049129238e-160
192 1 -0.028940625 -0.00125 0.014765625 3.64810704817e-157
193 1 -0.028940625 -0.00125 0.015946875 1.05000866663e-76
194 1 -0.028940625 -0.00125 0.017128125 1.18219568269e-74
195 1 -0.028940625 -0.00125 0.018309375 1.47364569256e-104
196 1 -0.028940625 -0.00125 0.019490625 3.50875847258e-277
197 1 -0.028940625 -0.00125 0.020671875 0.0
198 1 -0.028940625 -0.00125 0.021853125 7.90211126595e-206
199 1 -0.027759375 -0.00125 -0.024215625 1.73792377086e-36
200 1 -0.027759375 -0.00125 -0.023034375 8.76938331573e-18
201 1 -0.027759375 -0.00125 -0.021853125 0.000511978591452
202 1 -0.027759375 -0.00125 -0.020671875 5.28484572086e-10
203 1 -0.027759375 -0.00125 -0.019490625 5.75503131479e-20
204 1 -0.027759375 -0.00125 -0.018309375 2.39049827998e-41
205 1 -0.027759375 -0.00125 -0.017128125 1.1721141785e-74
206 1 -0.027759375 -0.00125 -0.015946875 5.28818490359e-266
207 1 -0.027759375 -0.00125 -0.014765625 3.11859684432e-206
208 1 -0.027759375 -0.00125 -0.013584375 1.01580260292e-173
209 1 -0.027759375 -0.00125 -0.012403125 2.96663293938e-34
210 1 -0.027759375 -0.00125 -0.011221875 1.05213330318e-31
211 1 -0.027759375 -0.00125 -0.010040625 2.06849904946e-28
212 1 -0.027759375 -0.00125 -0.008859375 3.46060248314e-34
213 1 -0.027759375 -0.00125 -0.007678125 5.06824043043e-33
214 1 -0.027759375 -0.00125 -0.006496875 1.43363268718e-14
215 1 -0.027759375 -0.00125 -0.005315625 3.18056151895e-12
216 1 -0.027759375 -0.00125 -0.004134375 2.35722768107e-16
217 1 -0.027759375 -0.00125 -0.002953125 1.85204664987e-11
218 1 -0.027759375 -0.00125 -0.001771875 1.72224590304e-18
219 1 -0.027759375 -0.00125 -0.000590625 5.57272791526e-11
220 1 -0.027759375 -0.00125 0.000590625 6.21410962556e-13
221 1 -0.027759375 -0.00125 0.001771875 8.15399834234e-13
222 1 -0.027759375 -0.00125 0.002953125 9.21192291538e-15
223 1 -0.027759375 -0.00125 0.004134375 4.2893933931e-14
224 1 -0.027759375 -0.00125 0.005315625 2.04239117098e-26
225 1 -0.027759375 -0.00125 0.006496875 7.1500723781e-37
226 1 -0.027759375 -0.00125 0.007678125 5.65217104191e-58
227 1 -0.027759375 -0.00125 0.008859375 2.22399177839e-29
228 1 -0.027759375 -0.00125 0.010040625 1.96392898418e-28
229 1 -0.027759375 -0.00125 0.011221875 8.14906833755e-85
230 1 -0.027759375 -0.00125 0.012403125 3.80272012281e-68
231 1 -0.027759375 -0.00125 0.013584375 9.98281740137e-76
232 1 -0.027759375 -0.00125 0.014765625 4.2287721798e-55
233 1 -0.027759375 -0.00125 0.015946875 3.61539551025e-38
234 1 -0.027759375 -0.00125 0.017128125 1.244014431e-55
235 1 -0.027759375 -0.00125 0.018309375 6.15321660948e-51
236 1 -0.027759375 -0.00125 0.019490625 2.4947664955e-148
237 1 -0.027759375 -0.00125 0.020671875 7.77081794317e-253
238 1 -0.027759375 -0.00125 0.021853125 1.2768757446e-180
239 1 -0.027759375 -0.00125 0.023034375 0.0
240 1 -0.027759375 -0.00125 0.024215625 0.0
241 1 -0.026578125 -0.00125 -0.026578125 5.39232684427e-62
242 1 -0.026578125 -0.00125 -0.025396875 2.1699911837e-66
243 1 -0.026578125 -0.00125 -0.024215625 2.53889844401e-52
244 1 -0.026578125 -0.00125 -0.023034375 2.80955362631e-16
245 1 -0.026578125 -0.00125 -0.021853125 7.49686085408e-09
246 1 -0.026578125 -0.00125 -0.020671875 2.1272159535e-10
247 1 -0.026578125 -0.00125 -0.019490625 7.80246512755e-09
248 1 -0.026578125 -0.00125 -0.018309375 3.7247041403e-21
249 1 -0.026578125 -0.00125 -0.017128125 6.67822453064e-95
250 1 -0.026578125 -0.00125 -0.015946875 1.54781199555e-212
251 1 -0.026578125 -0.00125 -0.014765625 6.27600148198e-212
252 1 -0.026578125 -0.00125 -0.013584375 5.72962878785e-80
253 1 -0.026578125 -0.00125 -0.012403125 2.25694740538e-21
254 1 -0.026578125 -0.00125 -0.011221875 2.11786298798e-14
255 1 -0.026578125 -0.00125 -0.010040625 1.04970656112e-16
256 1 -0.026578125 -0.00125 -0.008859375 1.65788295951e-13
257 1 -0.026578125 -0.00125 -0.007678125 4.58605368962e-07
258 1 -0.026578125 -0.00125 -0.006496875 4.67121773217e-06
259 1 -0.026578125 -0.00125 -0.005315625 5.21661468371e-06
260 1 -0.026578125 -0.00125 -0.004134375 1.5810417482e-07
261 1 -0.026578125 -0.00125 -0.002953125 1.74172489577e-08
262 1 -0.026578125 -0.00125 -0.001771875 6.66607590281e-09
263 1 -0.026578125 -0.00125 -0.000590625 8.97228763733e-08
264 1 -0.026578125 -0.00125 0.000590625 6.87365640214e-09
265 1 -0.026578125 -0.00125 0.001771875 2.299673152e-09
266 1 -0.026578125 -0.00125 0.002953125 1.00150659936e-08
267 1 -0.026578125 -0.00125 0.004134375 8.87257853703e-11
268 1 -0.026578125 -0.00125 0.005315625 1.93109661571e-12
269 1 -0.026578125 -0.00125 0.006496875 4.65708902599e-31
270 1 -0.026578125 -0.00125 0.007678125 6.27257070595e-18
271 1 -0.026578125 -0.00125 0.008859375 9.38656139141e-22
272 1 -0.026578125 -0.00125 0.010040625 3.3290191923e-24
273 1 -0.026578125 -0.00125 0.011221875 6.12199782817e-23
274 1 -0.026578125 -0.00125 0.012403125 3.40093811208e-26
275 1 -0.026578125 -0.00125 0.013584375 1.25904594121e-19
276 1 -0.026578125 -0.00125 0.014765625 2.8473851932e-22
277 1 -0.026578125 -0.00125 0.015946875 3.08580397239e-32
278 1 -0.026578125 -0.00125 0.017128125 4.42373018213e-24
279 1 -0.026578125 -0.00125 0.018309375 5.37479642005e-21
280 1 -0.026578125 -0.00125 0.019490625 1.03075297744e-48
281 1 -0.026578125 -0.00125 0.020671875 1.52479821672e-156
282 1 -0.026578125 -0.00125 0.021853125 0.0
283 1 -0.026578125 -0.00125 0.023034375 0.0
284 1 -0.026578125 -0.00125 0.024215625 0.0
285 1 -0.026578125 -0.00125 0.025396875 0.0
286 1 -0.026578125 -0.00125 0.026578125 0.0
287 1 -0.025396875 -0.00125 -0.026578125 3.50600542751e-90
288 1 -0.025396875 -0.00125 -0.025396875 1.80132470502e-123
289 1 -0.025396875 -0.00125 -0.024215625 6.96315142636e-47
290 1 -0.025396875 -0.00125 -0.023034375 7.71469119675e-21
291 1 -0.025396875 -0.00125 -0.021853125 1.01723047815e-13
292 1 -0.025396875 -0.00125 -0.020671875 4.60080902555e-11
293 1 -0.025396875 -0.00125 -0.019490625 1.2556968076e-13
294 1 -0.025396875 -0.00125 -0.018309375 1.45820467591e-33
295 1 -0.025396875 -0.00125 -0.017128125 8.6097167317e-155
296 1 -0.025396875 -0.00125 -0.015946875 4.43339606846e-114
297 1 -0.025396875 -0.00125 -0.014765625 2.13853275206e-52
298 1 -0.025396875 -0.00125 -0.013584375 1.02889080863e-29
299 1 -0.025396875 -0.00125 -0.012403125 3.36105450911e-11
300 1 -0.025396875 -0.00125 -0.011221875 5.73313131845e-08
301 1 -0.025396875 -0.00125 -0.010040625 0.00021204233302
302 1 -0.025396875 -0.00125 -0.008859375 0.000103370337743
303 1 -0.025396875 -0.00125 -0.007678125 6.41839461764e-05
304 1 -0.025396875 -0.00125 -0.006496875 4.44945358472e-05
305 1 -0.025396875 -0.00125 -0.005315625 0.000318915533173
306 1 -0.025396875 -0.00125 -0.004134375 3.20783917346e-05
307 1 -0.025396875 -0.00125 -0.002953125 7.88624174606e-06
308 1 -0.025396875 -0.00125 -0.001771875 6.8844228121e-06
309 1 -0.025396875 -0.00125 -0.000590625 2.22893234094e-09
310 1 -0.025396875 -0.00125 0.000590625 1.1599266666e-08
311 1 -0.025396875 -0.00125 0.001771875 7.10961568514e-09
312 1 -0.025396875 -0.00125 0.002953125 2.51226930127e-07
313 1 -0.025396875 -0.00125 0.004134375 7.25691844283e-06
314 1 -0.025396875 -0.00125 0.005315625 3.44263439044e-06
315 1 -0.025396875 -0.00125 0.006496875 2.61268458348e-12
316 1 -0.025396875 -0.00125 0.007678125 2.74129733645e-10
317 1 -0.025396875 -0.00125 0.008859375 7.48311167141e-11
318 1 -0.025396875 -0.00125 0.010040625 6.53714175493e-11
319 1 -0.025396875 -0.00125 0.011221875 1.69743398916e-15
320 1 -0.025396875 -0.00125 0.012403125 1.72019484494e-10
321 1 -0.025396875 -0.00125 0.013584375 3.02461580441e-14
322 1 -0.025396875 -0.00125 0.014765625 3.30462327577e-10
323 1 -0.025396875 -0.00125 0.015946875 2.12247531233e-11
324 1 -0.025396875 -0.00125 0.017128125 9.2431216503e-09
325 1 -0.025396875 -0.00125 0.018309375 6.60016680471e-15
326 1 -0.025396875 -0.00125 0.019490625 4.50786558234e-24
327 1 -0.025396875 -0.00125 0.020671875 7.108070848e-70
328 1 -0.025396875 -0.00125 0.021853125 0.0
329 1 -0.025396875 -0.00125 0.023034375 0.0
330 1 -0.025396875 -0.00125 0.024215625 0.0
331 1 -0.025396875 -0.00125 0.025396875 0.0
332 1 -0.025396875 -0.00125 0.026578125 0.0
333 1 -0.024215625 -0.00125 -0.027759375 4.07535491969e-36
334 1 -0.024215625 -0.00125 -0.026578125 5.96130905111e-55
335 1 -0.024215625 -0.00125 -0.025396875 7.99331751134e-47
336 1 -0.024215625 -0.00125 -0.024215625 5.42186835596e-19
337 1 -0.024215625 -0.00125 -0.023034375 1.12330598573e-17
338 1 -0.024215625 -0.00125 -0.021853125 1.49288573074e-13
339 1 -0.024215625 -0.00125 -0.020671875 8.92797597537e-13
340 1 -0.024215625 -0.00125 -0.019490625 6.98909337407e-19
341 1 -0.024215625 -0.00125 -0.018309375 1.02581172877e-38
342 1 -0.024215625 -0.00125 -0.017128125 4.44452941536e-77
343 1 -0.024215625 -0.00125 -0.015946875 1.42972758954e-46
344 1 -0.024215625 -0.00125 -0.014765625 1.49659000991e-18
345 1 -0.024215625 -0.00125 -0.013584375 1.11393729942e-10
346 1 -0.024215625 -0.00125 -0.012403125 5.75169799999e-05
347 1 -0.024215625 -0.00125 -0.011221875 0.000329094232794
348 1 -0.024215625 -0.00125 -0.010040625 0.00213127149296
349 1 -0.024215625 -0.00125 -0.008859375 0.000511237975455
350 1 -0.024215625 -0.00125 -0.007678125 0.000165111727297
351 1 -0.024215625 -0.00125 -0.006496875 0.00520161590664
352 1 -0.024215625 -0.00125 -0.005315625 0.0126390086858
353 1 -0.024215625 -0.00125 -0.004134375 0.0148863633546
354 1 -0.024215625 -0.00125 -0.002953125 0.000432684757727
355 1 -0.024215625 -0.00125 -0.001771875 0.000163405628792
356 1 -0.024215625 -0.00125 -0.000590625 3.41253075874e-06
357 1 -0.024215625 -0.00125 0.000590625 5.04579362407e-05
358 1 -0.024215625 -0.00125 0.001771875 2.02666339568e-05
359 1 -0.024215625 -0.00125 0.002953125 0.000289738504022
360 1 -0.024215625 -0.00125 0.004134375 2.65999697372e-05
361 1 -0.024215625 -0.00125 0.005315625 6.12643608458e-06
362 1 -0.024215625 -0.00125 0.006496875 1.3768316225e-09
363 1 -0.024215625 -0.00125 0.007678125 7.64139170261e-09
364 1 -0.024215625 -0.00125 0.008859375 3.04341491318e-09
365 1 -0.024215625 -0.00125 0.010040625 6.32572902126e-07
366 1 -0.024215625 -0.00125 0.011221875 1.26343701743e-09
367 1 -0.024215625 -0.00125 0.012403125 7.58095479983e-07
368 1 -0.024215625 -0.00125 0.013584375 2.33436158644e-10
369 1 -0.024215625 -0.00125 0.014765625 3.2808262753e-06
370 1 -0.024215625 -0.00125 0.015946875 6.99734661956e-07
371 1 -0.024215625 -0.00125 0.017128125 4.25109974724e-08
372 1 -0.024215625 -0.00125 0.018309375 2.604150812e-12
373 1 -0.024215625 -0.00125 0.019490625 1.55912181051e-31
374 1 -0.024215625 -0.00125 0.020671875 1.07525750946e-87
375 1 -0.024215625 -0.00125 0.021853125 3.77855802336e-191
376 1 -0.024215625 -0.00125 0.023034375 0.0
377 1 -0.024215625 -0.00125 0.024215625 0.0
378 1 -0.024215625 -0.00125 0.025396875 0.0
379 1 -0.024215625 -0.00125 0.026578125 0.0
380 1 -0.024215625 -0.00125 0.027759375 0.0
381 1 -0.023034375 -0.00125 -0.027759375 2.28360430995e-43
382 1 -0.023034375 -0.00125 -0.026578125 1.94968566272e-22
383 1 -0.023034375 -0.00125 -0.025396875 8.74135411964e-24
384 1 -0.023034375 -0.00125 -0.024215625 2.4274986331e-15
385 1 -0.023034375 -0.00125 -0.023034375 1.80302008317e-10
386 1 -0.023034375 -0.00125 -0.021853125 6.28952213272e-10
387 1 -0.023034375 -0.00125 -0.020671875 1.17183845756e-10
388 1 -0.023034375 -0.00125 -0.019490625 2.79234783369e-19
389 1 -0.023034375 -0.00125 -0.018309375 1.01729964807e-22
390 1 -0.023034375 -0.00125 -0.017128125 9.01082277095e-24
391 1 -0.023034375 -0.00125 -0.015946875 7.58596560372e-13
392 1 -0.023034375 -0.00125 -0.014765625 2.92058935911e-09
393 1 -0.023034375 -0.00125 -0.013584375 2.24035581594e-07
394 1 -0.023034375 -0.00125 -0.012403125 4.76203190805e-06
395 1 -0.023034375 -0.00125 -0.011221875 0.000313237760916
396 1 -0.023034375 -0.00125 -0.010040625 0.00150209356769
397 1 -0.023034375 -0.00125 -0.008859375 0.00117457781377
398 1 -0.023034375 -0.00125 -0.007678125 0.00144606710616
399 1 -0.023034375 -0.00125 -0.006496875 0.0139827603637
400 1 -0.023034375 -0.00125 -0.005315625 0.0111112926514
401 1 -0.023034375 -0.00125 -0.004134375 0.00387861293853
402 1 -0.023034375 -0.00125 -0.002953125 0.00195319784027
403 1 -0.023034375 -0.00125 -0.001771875 0.000463041225349
404 1 -0.023034375 -0.00125 -0.000590625 0.000306540617785
405 1 -0.023034375 -0.00125 0.000590625 7.36020886277e-05
406 1 -0.023034375 -0.00125 0.001771875 2.96246492543e-06
407 1 -0.023034375 -0.00125 0.002953125 8.59076835621e-05
408 1 -0.023034375 -0.00125 0.004134375 9.21974939489e-06
409 1 -0.023034375 -0.00125 0.005315625 3.94075305623e-17
410 1 -0.023034375 -0.00125 0.006496875 1.19649210986e-07
411 1 -0.023034375 -0.00125 0.007678125 5.22208675053e-08
412 1 -0.023034375 -0.00125 0.008859375 9.16091898386e-10
413 1 -0.023034375 -0.00125 0.010040625 3.38884492078e-10
414 1 -0.023034375 -0.00125 0.011221875 2.08976870973e-10
415 1 -0.023034375 -0.00125 0.012403125 8.87267674495e-09
416 1 -0.023034375 -0.00125 0.013584375 6.26252802076e-08
417 1 -0.023034375 -0.00125 0.014765625 4.77545894587e-05
418 1 -0.023034375 -0.00125 0.015946875 2.35967338361e-07
419 1 -0.023034375 -0.00125 0.017128125 4.16357034064e-09
420 1 -0.023034375 -0.00125 0.018309375 3.20314710701e-10
421 1 -0.023034375 -0.00125 0.019490625 1.19390354345e-09
422 1 -0.023034375 -0.00125 0.020671875 5.18265077972e-26
423 1 -0.023034375 -0.00125 0.021853125 5.27255677498e-203
424 1 -0.023034375 -0.00125 0.023034375 0.0
425 1 -0.023034375 -0.00125 0.024215625 0.0
426 1 -0.023034375 -0.00125 0.025396875 0.0
427 1 -0.023034375 -0.00125 0.026578125 0.0
428 1 -0.023034375 -0.00125 0.027759375 3.3677717617e-138
429 1 -0.021853125 -0.00125 -0.028940625 1.70858356526e-26
430 1 -0.021853125 -0.00125 -0.027759375 4.77402072492e-19
431 1 -0.021853125 -0.00125 -0.026578125 4.06234404733e-20
432 1 -0.021853125 -0.00125 -0.025396875 1.12272197707e-13
433 1 -0.021853125 -0.00125 -0.024215625 4.88685168223e-09
434 1 -0.021853125 -0.00125 -0.023034375 4.09726595138e-07
435 1 -0.021853125 -0.00125 -0.021853125 2.3906716053e-05
436 1 -0.021853125 -0.00125 -0.020671875 4.36627404623e-09
437 1 -0.021853125 -0.00125 -0.019490625 7.35954876972e-17
438 1 -0.021853125 -0.00125 -0.018309375 3.00961238739e-16
439 1 -0.021853125 -0.00125 -0.017128125 1.27630132156e-10
440 1 -0.021853125 -0.00125 -0.015946875 1.61778471644e-07
441 1 -0.021853125 -0.00125 -0.014765625 3.01387274295e-05
442 1 -0.021853125 -0.00125 -0.013584375 2.45212775636e-05
443 1 -0.021853125 -0.00125 -0.012403125 7.81568738359e-05
444 1 -0.021853125 -0.00125 -0.011221875 0.000512374407279
445 1 -0.021853125 -0.00125 -0.010040625 0.000444817898561
446 1 -0.021853125 -0.00125 -0.008859375 0.00110811356322
447 1 -0.021853125 -0.00125 -0.007678125 0.0213498439842
448 1 -0.021853125 -0.00125 -0.006496875 0.0259537840154
449 1 -0.021853125 -0.00125 -0.005315625 0.00459398258304
450 1 -0.021853125 -0.00125 -0.004134375 0.00511984583885
451 1 -0.021853125 -0.00125 -0.002953125 0.000269485813497
452 1 -0.021853125 -0.00125 -0.001771875 0.000179114529736
453 1 -0.021853125 -0.00125 -0.000590625 0.00072250067552
454 1 -0.021853125 -0.00125 0.000590625 2.94645460037e-05
455 1 -0.021853125 -0.00125 0.001771875 3.04420183903e-07
456 1 -0.021853125 -0.00125 0.002953125 3.87037225392e-06
457 1 -0.021853125 -0.00125 0.004134375 5.90098998649e-06
458 1 -0.021853125 -0.00125 0.005315625 3.40211755612e-06
459 1 -0.021853125 -0.00125 0.006496875 3.01542292342e-06
460 1 -0.021853125 -0.00125 0.007678125 2.06168555206e-08
461 1 -0.021853125 -0.00125 0.008859375 1.19062052923e-06
462 1 -0.021853125 -0.00125 0.010040625 9.21688149464e-09
463 1 -0.021853125 -0.00125 0.011221875 9.42064525146e-10
464 1 -0.021853125 -0.00125 0.012403125 2.83770803499e-08
465 1 -0.021853125 -0.00125 0.013584375 1.15386507204e-07
466 1 -0.021853125 -0.00125 0.014765625 2.35953036765e-05
467 1 -0.021853125 -0.00125 0.015946875 1.05400863983e-06
468 1 -0.021853125 -0.00125 0.017128125 1.66652148402e-07
469 1 -0.021853125 -0.00125 0.018309375 6.00784189827e-08
470 1 -0.021853125 -0.00125 0.019490625 4.47959180765e-08
471 1 -0.021853125 -0.00125 0.020671875 7.85588638795e-21
472 1 -0.021853125 -0.00125 0.021853125 2.87588135443e-41
473 1 -0.021853125 -0.00125 0.023034375 8.83336318311e-138
474 1 -0.021853125 -0.00125 0.024215625 3.53293962196e-253
475 1 -0.021853125 -0.00125 0.025396875 2.0567530469e-138
476 1 -0.021853125 -0.00125 0.026578125 3.38025757904e-124
477 1 -0.021853125 -0.00125 0.027759375 1.55476924833e-96
478 1 -0.021853125 -0.00125 0.028940625 1.40939208439e-104
479 1 -0.020671875 -0.00125 -0.030121875 3.14886910991e-29
480 1 -0.020671875 -0.00125 -0.028940625 3.32994935449e-21
481 1 -0.020671875 -0.00125 -0.027759375 2.1594157926e-20
482 1 -0.020671875 -0.00125 -0.026578125 1.09757221395e-12
483 1 -0.020671875 -0.00125 -0.025396875 9.94838790424e-19
484 1 -0.020671875 -0.00125 -0.024215625 4.69003888819e-09
485 1 -0.020671875 -0.00125 -0.023034375 7.45043377968e-08
486 1 -0.020671875 -0.00125 -0.021853125 1.26704650355e-06
487 1 -0.020671875 -0.00125 -0.020671875 4.57920925159e-07
488 1 -0.020671875 -0.00125 -0.019490625 3.61617476965e-08
489 1 -0.020671875 -0.00125 -0.018309375 2.68175743282e-07
490 1 -0.020671875 -0.00125 -0.017128125 1.09248306708e-06
491 1 -0.020671875 -0.00125 -0.015946875 4.39493612774e-07
492 1 -0.020671875 -0.00125 -0.014765625 4.9801041282e-05
493 1 -0.020671875 -0.00125 -0.013584375 1.01795136089e-05
494 1 -0.020671875 -0.00125 -0.012403125 0.000331308130019
495 1 -0.020671875 -0.00125 -0.011221875 9.44459857619e-06
496 1 -0.020671875 -0.00125 -0.010040625 0.000629353613977
497 1 -0.020671875 -0.00125 -0.008859375 0.000335367282639
498 1 -0.020671875 -0.00125 -0.007678125 0.00686828150504
499 1 -0.020671875 -0.00125 -0.006496875 0.0233944141511
500 1 -0.020671875 -0.00125 -0.005315625 0.00754363361496
501 1 -0.020671875 -0.00125 -0.004134375 0.00405932732079
502 1 -0.020671875 -0.00125 -0.002953125 0.000412306112243
503 1 -0.020671875 -0.00125 -0.001771875 0.00114040899116
504 1 -0.020671875 -0.00125 -0.000590625 0.000368220244054
505 1 -0.020671875 -0.00125 0.000590625 0.000206307029861
506 1 -0.020671875 -0.00125 0.001771875 8.8912159704e-06
507 1 -0.020671875 -0.00125 0.002953125 7.31199390673e-08
508 1 -0.020671875 -0.00125 0.004134375 5.62203482772e-07
509 1 -0.020671875 -0.00125 0.005315625 1.04656136993e-07
510 1 -0.020671875 -0.00125 0.006496875 1.6846894671e-07
511 1 -0.020671875 -0.00125 0.007678125 1.2263325258e-07
512 1 -0.020671875 -0.00125 0.008859375 3.84660714165e-05
513 1 -0.020671875 -0.00125 0.010040625 4.50370878676e-09
514 1 -0.020671875 -0.00125 0.011221875 1.4486776586e-06
515 1 -0.020671875 -0.00125 0.012403125 1.43746773732e-05
516 1 -0.020671875 -0.00125 0.013584375 2.33758673171e-05
517 1 -0.020671875 -0.00125 0.014765625 0.00141407208993
518 1 -0.020671875 -0.00125 0.015946875 0.000441573188446
519 1 -0.020671875 -0.00125 0.017128125 0.000104690293576
520 1 -0.020671875 -0.00125 0.018309375 2.99791209408e-05