ITEM: TIMESTEP
0
ITEM: NUMBER OF ATOMS
3080
ITEM: BOX BOUNDS ss ss ss
-3.7007399999999996e-02 3.7007399999999996e-02
-2.0002499999999999e-03 2.5000000000000004e-07
-3.7007399999999996e-02 3.7007399999999996e-02
ITEM: ATOMS id type x y z c_1
0 1 -0.037209375 -0.00125 -0.000590625 0.141752744525
1 1 -0.036028125 -0.00125 -0.007678125 0.00920066229086
2 1 -0.036028125 -0.00125 -0.006496875 0.0
3 1 -0.036028125 -0.00125 -0.005315625 0.0
4 1 -0.036028125 -0.00125 -0.004134375 0.0
5 1 -0.036028125 -0.00125 -0.002953125 0.00207820714601
6 1 -0.036028125 -0.00125 -0.001771875 0.17162733092
7 1 -0.036028125 -0.00125 -0.000590625 0.331045897339
8 1 -0.036028125 -0.00125 0.000590625 0.283624760984
9 1 -0.036028125 -0.00125 0.001771875 0.135479596443
10 1 -0.036028125 -0.00125 0.002953125 3.70458005324e-08
11 1 -0.036028125 -0.00125 0.004134375 0.0
12 1 -0.036028125 -0.00125 0.005315625 0.0
13 1 -0.036028125 -0.00125 0.006496875 0.0
14 1 -0.036028125 -0.00125 0.007678125 0.000455413315469
15 1 -0.034846875 -0.00125 -0.011221875 0.00920066229086
16 1 -0.034846875 -0.00125 -0.010040625 0.0
17 1 -0.034846875 -0.00125 -0.008859375 0.182529172436
18 1 -0.034846875 -0.00125 -0.007678125 0.112788508618
19 1 -0.034846875 -0.00125 -0.006496875 0.0
20 1 -0.034846875 -0.00125 -0.005315625 0.0
21 1 -0.034846875 -0.00125 -0.004134375 0.0
22 1 -0.034846875 -0.00125 -0.002953125 0.000891023127979
23 1 -0.034846875 -0.00125 -0.001771875 0.17575893658
24 1 -0.034846875 -0.00125 -0.000590625 0.243984411021
25 1 -0.034846875 -0.00125 0.000590625 0.21372123369
26 1 -0.034846875 -0.00125 0.001771875 0.0443322841124
27 1 -0.034846875 -0.00125 0.002953125 1.74019667629e-11
28 1 -0.034846875 -0.00125 0.004134375 0.0
29 1 -0.034846875 -0.00125 0.005315625 0.0
30 1 -0.034846875 -0.00125 0.006496875 0.0
31 1 -0.034846875 -0.00125 0.007678125 0.00484852499721
32 1 -0.034846875 -0.00125 0.008859375 0.0180058544457
33 1 -0.034846875 -0.00125 0.010040625 0.0
34 1 -0.034846875 -0.00125 0.011221875 0.000455413315469
35 1 -0.033665625 -0.00125 -0.013584375 0.0
36 1 -0.033665625 -0.00125 -0.012403125 0.182529172436
37 1 -0.033665625 -0.00125 -0.011221875 0.112788508618
38 1 -0.033665625 -0.00125 -0.010040625 1.74019667629e-11
39 1 -0.033665625 -0.00125 -0.008859375 0.091233852548
40 1 -0.033665625 -0.00125 -0.007678125 0.091233852548
41 1 -0.033665625 -0.00125 -0.006496875 2.79378975481e-22
42 1 -0.033665625 -0.00125 -0.005315625 0.0
43 1 -0.033665625 -0.00125 -0.004134375 1.22156214432e-15
44 1 -0.033665625 -0.00125 -0.002953125 0.0107214510125
45 1 -0.033665625 -0.00125 -0.001771875 0.14929428164
46 1 -0.033665625 -0.00125 -0.000590625 0.0475687660223
47 1 -0.033665625 -0.00125 0.000590625 0.196692230435
48 1 -0.033665625 -0.00125 0.001771875 0.123928325831
49 1 -0.033665625 -0.00125 0.002953125 0.00154813293271
50 1 -0.033665625 -0.00125 0.004134375 0.0
51 1 -0.033665625 -0.00125 0.005315625 0.0
52 1 -0.033665625 -0.00125 0.006496875 0.0
53 1 -0.033665625 -0.00125 0.007678125 0.0
54 1 -0.033665625 -0.00125 0.008859375 6.01557630165e-07
55 1 -0.033665625 -0.00125 0.010040625 1.74019667629e-11
56 1 -0.033665625 -0.00125 0.011221875 0.0883131183637
57 1 -0.033665625 -0.00125 0.012403125 0.320687946562
58 1 -0.033665625 -0.00125 0.013584375 0.000466547701564
59 1 -0.032484375 -0.00125 -0.018309375 0.0
60 1 -0.032484375 -0.00125 -0.017128125 0.00106278235535
61 1 -0.032484375 -0.00125 -0.015946875 0.0
62 1 -0.032484375 -0.00125 -0.014765625 0.0
63 1 -0.032484375 -0.00125 -0.013584375 0.0
64 1 -0.032484375 -0.00125 -0.012403125 0.000535660654302
65 1 -0.032484375 -0.00125 -0.011221875 0.00566000214566
66 1 -0.032484375 -0.00125 -0.010040625 7.69885813891e-05
67 1 -0.032484375 -0.00125 -0.008859375 6.01557630165e-07
68 1 -0.032484375 -0.00125 -0.007678125 1.28752206004e-08
69 1 -0.032484375 -0.00125 -0.006496875 7.49709589486e-44
70 1 -0.032484375 -0.00125 -0.005315625 0.0
71 1 -0.032484375 -0.00125 -0.004134375 3.14925560351e-13
72 1 -0.032484375 -0.00125 -0.002953125 0.08277029154
73 1 -0.032484375 -0.00125 -0.001771875 0.227707986464
74 1 -0.032484375 -0.00125 -0.000590625 0.00701011316027
75 1 -0.032484375 -0.00125 0.000590625 0.072237711262
76 1 -0.032484375 -0.00125 0.001771875 0.357975472462
77 1 -0.032484375 -0.00125 0.002953125 0.11175699854
78 1 -0.032484375 -0.00125 0.004134375 1.28754471296e-08
79 1 -0.032484375 -0.00125 0.005315625 0.0
80 1 -0.032484375 -0.00125 0.006496875 0.0
81 1 -0.032484375 -0.00125 0.007678125 0.0
82 1 -0.032484375 -0.00125 0.008859375 0.0
83 1 -0.032484375 -0.00125 0.010040625 0.0
84 1 -0.032484375 -0.00125 0.011221875 0.000126657572948
85 1 -0.032484375 -0.00125 0.012403125 0.016744222721
86 1 -0.032484375 -0.00125 0.013584375 0.134663756982
87 1 -0.032484375 -0.00125 0.014765625 0.025200971831
88 1 -0.032484375 -0.00125 0.015946875 5.62172500275e-05
89 1 -0.032484375 -0.00125 0.017128125 0.00106278235535
90 1 -0.032484375 -0.00125 0.018309375 0.0
91 1 -0.031303125 -0.00125 -0.019490625 1.95458788707e-08
92 1 -0.031303125 -0.00125 -0.018309375 0.0328185601249
93 1 -0.031303125 -0.00125 -0.017128125 0.00154813293271
94 1 -0.031303125 -0.00125 -0.015946875 0.0
95 1 -0.031303125 -0.00125 -0.014765625 0.0
96 1 -0.031303125 -0.00125 -0.013584375 2.79378975481e-22
97 1 -0.031303125 -0.00125 -0.012403125 1.74019667629e-11
98 1 -0.031303125 -0.00125 -0.011221875 1.74019667629e-11
99 1 -0.031303125 -0.00125 -0.010040625 0.0
100 1 -0.031303125 -0.00125 -0.008859375 0.0
101 1 -0.031303125 -0.00125 -0.007678125 0.0
102 1 -0.031303125 -0.00125 -0.006496875 0.0
103 1 -0.031303125 -0.00125 -0.005315625 0.0
104 1 -0.031303125 -0.00125 -0.004134375 0.000299131636816
105 1 -0.031303125 -0.00125 -0.002953125 0.0999860491522
106 1 -0.031303125 -0.00125 -0.001771875 0.203051971158
107 1 -0.031303125 -0.00125 -0.000590625 0.0107214327852
108 1 -0.031303125 -0.00125 0.000590625 0.0243767952624
109 1 -0.031303125 -0.00125 0.001771875 0.252716464147
110 1 -0.031303125 -0.00125 0.002953125 0.0443322841124
111 1 -0.031303125 -0.00125 0.004134375 1.74019667629e-11
112 1 -0.031303125 -0.00125 0.005315625 0.0
113 1 -0.031303125 -0.00125 0.006496875 0.0
114 1 -0.031303125 -0.00125 0.007678125 0.0
115 1 -0.031303125 -0.00125 0.008859375 0.0
116 1 -0.031303125 -0.00125 0.010040625 0.0
117 1 -0.031303125 -0.00125 0.011221875 0.0
118 1 -0.031303125 -0.00125 0.012403125 0.0
119 1 -0.031303125 -0.00125 0.013584375 0.172658474079
120 1 -0.031303125 -0.00125 0.014765625 1.22156214432e-15
121 1 -0.031303125 -0.00125 0.015946875 0.0
122 1 -0.031303125 -0.00125 0.017128125 0.0
123 1 -0.031303125 -0.00125 0.018309375 1.18574745776e-05
124 1 -0.031303125 -0.00125 0.019490625 0.0
125 1 -0.030121875 -0.00125 -0.020671875 2.52587523623e-07
126 1 -0.030121875 -0.00125 -0.019490625 3.14925560351e-13
127 1 -0.030121875 -0.00125 -0.018309375 0.186171540908
128 1 -0.030121875 -0.00125 -0.017128125 0.159358746116
129 1 -0.030121875 -0.00125 -0.015946875 1.74019667629e-11
130 1 -0.030121875 -0.00125 -0.014765625 0.0
131 1 -0.030121875 -0.00125 -0.013584375 0.0
132 1 -0.030121875 -0.00125 -0.012403125 1.74019667629e-11
133 1 -0.030121875 -0.00125 -0.011221875 1.74019667629e-11
134 1 -0.030121875 -0.00125 -0.010040625 0.0
135 1 -0.030121875 -0.00125 -0.008859375 0.0
136 1 -0.030121875 -0.00125 -0.007678125 0.0
137 1 -0.030121875 -0.00125 -0.006496875 0.0
138 1 -0.030121875 -0.00125 -0.005315625 0.0
139 1 -0.030121875 -0.00125 -0.004134375 6.01557630165e-07
140 1 -0.030121875 -0.00125 -0.002953125 0.0243767952624
141 1 -0.030121875 -0.00125 -0.001771875 0.0443323240644
142 1 -0.030121875 -0.00125 -0.000590625 0.000392759482868
143 1 -0.030121875 -0.00125 0.000590625 0.000696613743017
144 1 -0.030121875 -0.00125 0.001771875 0.091233852548
145 1 -0.030121875 -0.00125 0.002953125 0.091233852548
146 1 -0.030121875 -0.00125 0.004134375 1.74019667629e-11
147 1 -0.030121875 -0.00125 0.005315625 0.0
148 1 -0.030121875 -0.00125 0.006496875 0.0
149 1 -0.030121875 -0.00125 0.007678125 0.0
150 1 -0.030121875 -0.00125 0.008859375 0.0
151 1 -0.030121875 -0.00125 0.010040625 0.0
152 1 -0.030121875 -0.00125 0.011221875 0.0
153 1 -0.030121875 -0.00125 0.012403125 0.0
154 1 -0.030121875 -0.00125 0.013584375 0.186171540908
155 1 -0.030121875 -0.00125 0.014765625 0.00474644221021
156 1 -0.030121875 -0.00125 0.015946875 0.00154812961495
157 1 -0.030121875 -0.00125 0.017128125 6.01557630165e-07
158 1 -0.030121875 -0.00125 0.018309375 1.74019667629e-11
159 1 -0.030121875 -0.00125 0.019490625 2.79378975481e-22
160 1 -0.030121875 -0.00125 0.020671875 0.0
161 1 -0.028940625 -0.00125 -0.021853125 0.00466864259094
162 1 -0.028940625 -0.00125 -0.020671875 1.18026294841e-10
163 1 -0.028940625 -0.00125 -0.019490625 2.79378975481e-22
164 1 -0.028940625 -0.00125 -0.018309375 0.186171540908
165 1 -0.028940625 -0.00125 -0.017128125 0.186171540908
166 1 -0.028940625 -0.00125 -0.015946875 1.74019667629e-11
167 1 -0.028940625 -0.00125 -0.014765625 1.74019667629e-11
168 1 -0.028940625 -0.00125 -0.013584375 0.0
169 1 -0.028940625 -0.00125 -0.012403125 0.0
170 1 -0.028940625 -0.00125 -0.011221875 0.0
171 1 -0.028940625 -0.00125 -0.010040625 0.0
172 1 -0.028940625 -0.00125 -0.008859375 0.0
173 1 -0.028940625 -0.00125 -0.007678125 4.52220221462e-06
174 1 -0.028940625 -0.00125 -0.006496875 1.58379826604e-05
175 1 -0.028940625 -0.00125 -0.005315625 0.0
176 1 -0.028940625 -0.00125 -0.004134375 0.0
177 1 -0.028940625 -0.00125 -0.002953125 1.74019667629e-11
178 1 -0.028940625 -0.00125 -0.001771875 0.000126657572948
179 1 -0.028940625 -0.00125 -0.000590625 1.74014005978e-11
180 1 -0.028940625 -0.00125 0.000590625 0.0
181 1 -0.028940625 -0.00125 0.001771875 6.01557630165e-07
182 1 -0.028940625 -0.00125 0.002953125 1.74019667629e-11
183 1 -0.028940625 -0.00125 0.004134375 0.0
184 1 -0.028940625 -0.00125 0.005315625 0.0
185 1 -0.028940625 -0.00125 0.006496875 0.0
186 1 -0.028940625 -0.00125 0.007678125 0.0
187 1 -0.028940625 -0.00125 0.008859375 0.0
188 1 -0.028940625 -0.00125 0.010040625 0.0
189 1 -0.028940625 -0.00125 0.011221875 0.0
190 1 -0.028940625 -0.00125 0.012403125 4.52227625942e-06
191 1 -0.028940625 -0.00125 0.013584375 0.233118214189
192 1 -0.028940625 -0.00125 0.014765625 0.281290770421
193 1 -0.028940625 -0.00125 0.015946875 0.0443322841124
194 1 -0.028940625 -0.00125 0.017128125 0.000126657572948
195 1 -0.028940625 -0.00125 0.018309375 6.01557630165e-07
196 1 -0.028940625 -0.00125 0.019490625 2.79378975481e-22
197 1 -0.028940625 -0.00125 0.020671875 0.0
198 1 -0.028940625 -0.00125 0.021853125 2.52587523623e-07
199 1 -0.027759375 -0.00125 -0.024215625 0.0
200 1 -0.027759375 -0.00125 -0.023034375 0.148382227834
201 1 -0.027759375 -0.00125 -0.021853125 0.178504266497
202 1 -0.027759375 -0.00125 -0.020671875 1.74019667629e-11
203 1 -0.027759375 -0.00125 -0.019490625 0.0
204 1 -0.027759375 -0.00125 -0.018309375 0.186171540908
205 1 -0.027759375 -0.00125 -0.017128125 0.186171540908
206 1 -0.027759375 -0.00125 -0.015946875 0.0
207 1 -0.027759375 -0.00125 -0.014765625 0.0
208 1 -0.027759375 -0.00125 -0.013584375 0.0
209 1 -0.027759375 -0.00125 -0.012403125 0.0
210 1 -0.027759375 -0.00125 -0.011221875 0.0
211 1 -0.027759375 -0.00125 -0.010040625 0.0
212 1 -0.027759375 -0.00125 -0.008859375 4.52220221462e-06
213 1 -0.027759375 -0.00125 -0.007678125 0.00668182974929
214 1 -0.027759375 -0.00125 -0.006496875 0.0098718633607
215 1 -0.027759375 -0.00125 -0.005315625 0.000126658700522
216 1 -0.027759375 -0.00125 -0.004134375 6.01557630165e-07
217 1 -0.027759375 -0.00125 -0.002953125 0.000891023127979
218 1 -0.027759375 -0.00125 -0.001771875 0.00474645121499
219 1 -0.027759375 -0.00125 -0.000590625 0.00228020631897
220 1 -0.027759375 -0.00125 0.000590625 0.0293069224194
221 1 -0.027759375 -0.00125 0.001771875 0.00474644221021
222 1 -0.027759375 -0.00125 0.002953125 4.52220221462e-06
223 1 -0.027759375 -0.00125 0.004134375 0.0
224 1 -0.027759375 -0.00125 0.005315625 0.0
225 1 -0.027759375 -0.00125 0.006496875 0.0
226 1 -0.027759375 -0.00125 0.007678125 0.0
227 1 -0.027759375 -0.00125 0.008859375 0.0
228 1 -0.027759375 -0.00125 0.010040625 0.0
229 1 -0.027759375 -0.00125 0.011221875 1.74019667629e-11
230 1 -0.027759375 -0.00125 0.012403125 0.00668184101894
231 1 -0.027759375 -0.00125 0.013584375 0.119202686097
232 1 -0.027759375 -0.00125 0.014765625 0.123928325831
233 1 -0.027759375 -0.00125 0.015946875 0.00474645121499
234 1 -0.027759375 -0.00125 0.017128125 0.00668182974929
235 1 -0.027759375 -0.00125 0.018309375 4.52227625942e-06
236 1 -0.027759375 -0.00125 0.019490625 0.0
237 1 -0.027759375 -0.00125 0.020671875 1.74019667629e-11
238 1 -0.027759375 -0.00125 0.021853125 0.0
239 1 -0.027759375 -0.00125 0.023034375 5.44412977554e-09
240 1 -0.027759375 -0.00125 0.024215625 0.0
241 1 -0.026578125 -0.00125 -0.026578125 2.52587523623e-07
242 1 -0.026578125 -0.00125 -0.025396875 4.73457622274e-06
243 1 -0.026578125 -0.00125 -0.024215625 0.000225538425439
244 1 -0.026578125 -0.00125 -0.023034375 0.000126658700522
245 1 -0.026578125 -0.00125 -0.021853125 0.000126658199377
246 1 -0.026578125 -0.00125 -0.020671875 3.14925560351e-13
247 1 -0.026578125 -0.00125 -0.019490625 7.8331402925e-10
248 1 -0.026578125 -0.00125 -0.018309375 0.180950835502
249 1 -0.026578125 -0.00125 -0.017128125 0.205179062488
250 1 -0.026578125 -0.00125 -0.015946875 2.79378975481e-22
251 1 -0.026578125 -0.00125 -0.014765625 0.0
252 1 -0.026578125 -0.00125 -0.013584375 7.49709589486e-44
253 1 -0.026578125 -0.00125 -0.012403125 0.0
254 1 -0.026578125 -0.00125 -0.011221875 0.0
255 1 -0.026578125 -0.00125 -0.010040625 0.0
256 1 -0.026578125 -0.00125 -0.008859375 0.0
257 1 -0.026578125 -0.00125 -0.007678125 1.5837818957e-05
258 1 -0.026578125 -0.00125 -0.006496875 0.10627172084
259 1 -0.026578125 -0.00125 -0.005315625 0.199867928267
260 1 -0.026578125 -0.00125 -0.004134375 0.186171540908
261 1 -0.026578125 -0.00125 -0.002953125 0.295664431006
262 1 -0.026578125 -0.00125 -0.001771875 0.295664431006
263 1 -0.026578125 -0.00125 -0.000590625 0.27192057009
264 1 -0.026578125 -0.00125 0.000590625 0.199867928267
265 1 -0.026578125 -0.00125 0.001771875 0.15935900069
266 1 -0.026578125 -0.00125 0.002953125 0.263674773127
267 1 -0.026578125 -0.00125 0.004134375 0.186171540908
268 1 -0.026578125 -0.00125 0.005315625 0.131597655573
269 1 -0.026578125 -0.00125 0.006496875 0.0140400888409
270 1 -0.026578125 -0.00125 0.007678125 0.0167441592505
271 1 -0.026578125 -0.00125 0.008859375 0.000198679422043
272 1 -0.026578125 -0.00125 0.010040625 1.74014005978e-11
273 1 -0.026578125 -0.00125 0.011221875 3.07879020573e-05
274 1 -0.026578125 -0.00125 0.012403125 0.121086752542
275 1 -0.026578125 -0.00125 0.013584375 0.289576887945
276 1 -0.026578125 -0.00125 0.014765625 0.0187026692579
277 1 -0.026578125 -0.00125 0.015946875 3.07879020573e-05
278 1 -0.026578125 -0.00125 0.017128125 1.77731074088e-06
279 1 -0.026578125 -0.00125 0.018309375 1.28754471296e-08
280 1 -0.026578125 -0.00125 0.019490625 1.48545584418e-16
281 1 -0.026578125 -0.00125 0.020671875 1.5838087899e-05
282 1 -0.026578125 -0.00125 0.021853125 0.000126658700522
283 1 -0.026578125 -0.00125 0.023034375 1.77731074088e-06
284 1 -0.026578125 -0.00125 0.024215625 2.79378975481e-22
285 1 -0.026578125 -0.00125 0.025396875 0.0
286 1 -0.026578125 -0.00125 0.026578125 0.0
287 1 -0.025396875 -0.00125 -0.026578125 6.77884349387e-07
288 1 -0.025396875 -0.00125 -0.025396875 0.00154813293271
289 1 -0.025396875 -0.00125 -0.024215625 0.0698876476892
290 1 -0.025396875 -0.00125 -0.023034375 0.0293069007767
291 1 -0.025396875 -0.00125 -0.021853125 0.000126658700522
292 1 -0.025396875 -0.00125 -0.020671875 0.000126658700522
293 1 -0.025396875 -0.00125 -0.019490625 1.74019667629e-11
294 1 -0.025396875 -0.00125 -0.018309375 0.14929428164
295 1 -0.025396875 -0.00125 -0.017128125 0.332327069371
296 1 -0.025396875 -0.00125 -0.015946875 0.000126657572948
297 1 -0.025396875 -0.00125 -0.014765625 0.0
298 1 -0.025396875 -0.00125 -0.013584375 0.0
299 1 -0.025396875 -0.00125 -0.012403125 1.74019667629e-11
300 1 -0.025396875 -0.00125 -0.011221875 0.0
301 1 -0.025396875 -0.00125 -0.010040625 0.0
302 1 -0.025396875 -0.00125 -0.008859375 0.0
303 1 -0.025396875 -0.00125 -0.007678125 0.0
304 1 -0.025396875 -0.00125 -0.006496875 1.58378774223e-05
305 1 -0.025396875 -0.00125 -0.005315625 4.42606186288e-05
306 1 -0.025396875 -0.00125 -0.004134375 3.70458005324e-08
307 1 -0.025396875 -0.00125 -0.002953125 0.0243767756543
308 1 -0.025396875 -0.00125 -0.001771875 0.0999860491522
309 1 -0.025396875 -0.00125 -0.000590625 0.00284458418363
310 1 -0.025396875 -0.00125 0.000590625 0.0138696939255
311 1 -0.025396875 -0.00125 0.001771875 0.00154813293271
312 1 -0.025396875 -0.00125 0.002953125 0.00154813293271
313 1 -0.025396875 -0.00125 0.004134375 0.000299132858986
314 1 -0.025396875 -0.00125 0.005315625 0.0107214510125
315 1 -0.025396875 -0.00125 0.006496875 0.0243767854583
316 1 -0.025396875 -0.00125 0.007678125 0.000126657572948
317 1 -0.025396875 -0.00125 0.008859375 0.00154813293271
318 1 -0.025396875 -0.00125 0.010040625 0.00154812961495
319 1 -0.025396875 -0.00125 0.011221875 4.52227625942e-06
320 1 -0.025396875 -0.00125 0.012403125 0.159358746116
321 1 -0.025396875 -0.00125 0.013584375 0.335669010033
322 1 -0.025396875 -0.00125 0.014765625 0.114532075754
323 1 -0.025396875 -0.00125 0.015946875 0.00668182974929
324 1 -0.025396875 -0.00125 0.017128125 0.000126657572948
325 1 -0.025396875 -0.00125 0.018309375 0.000126658700522
326 1 -0.025396875 -0.00125 0.019490625 0.000126658700522
327 1 -0.025396875 -0.00125 0.020671875 0.00474645121499
328 1 -0.025396875 -0.00125 0.021853125 0.0138696939255
329 1 -0.025396875 -0.00125 0.023034375 0.00154813293271
330 1 -0.025396875 -0.00125 0.024215625 0.000126658700522
331 1 -0.025396875 -0.00125 0.025396875 0.000126658700522
332 1 -0.025396875 -0.00125 0.026578125 0.0
333 1 -0.024215625 -0.00125 -0.027759375 0.0
334 1 -0.024215625 -0.00125 -0.026578125 0.0
335 1 -0.024215625 -0.00125 -0.025396875 0.000126658700522
336 1 -0.024215625 -0.00125 -0.024215625 0.0243767756543
337 1 -0.024215625 -0.00125 -0.023034375 0.0293069007767
338 1 -0.024215625 -0.00125 -0.021853125 0.0293069007767
339 1 -0.024215625 -0.00125 -0.020671875 0.00154813293271
340 1 -0.024215625 -0.00125 -0.019490625 1.74019667629e-11
341 1 -0.024215625 -0.00125 -0.018309375 0.0698876476892
342 1 -0.024215625 -0.00125 -0.017128125 0.361324541927
343 1 -0.024215625 -0.00125 -0.015946875 0.01386971523
344 1 -0.024215625 -0.00125 -0.014765625 0.0
345 1 -0.024215625 -0.00125 -0.013584375 0.0
346 1 -0.024215625 -0.00125 -0.012403125 0.0
347 1 -0.024215625 -0.00125 -0.011221875 0.0
348 1 -0.024215625 -0.00125 -0.010040625 0.0
349 1 -0.024215625 -0.00125 -0.008859375 0.0
350 1 -0.024215625 -0.00125 -0.007678125 0.0
351 1 -0.024215625 -0.00125 -0.006496875 1.40785443464e-30
352 1 -0.024215625 -0.00125 -0.005315625 0.00474645121499
353 1 -0.024215625 -0.00125 -0.004134375 0.0550579936718
354 1 -0.024215625 -0.00125 -0.002953125 0.114532114604
355 1 -0.024215625 -0.00125 -0.001771875 0.0443322974297
356 1 -0.024215625 -0.00125 -0.000590625 3.07878012444e-05
357 1 -0.024215625 -0.00125 0.000590625 4.42606186288e-05
358 1 -0.024215625 -0.00125 0.001771875 0.000126657572948
359 1 -0.024215625 -0.00125 0.002953125 0.0199375341518
360 1 -0.024215625 -0.00125 0.004134375 0.01386971523
361 1 -0.024215625 -0.00125 0.005315625 0.0159957673393
362 1 -0.024215625 -0.00125 0.006496875 7.69885813891e-05
363 1 -0.024215625 -0.00125 0.007678125 0.0
364 1 -0.024215625 -0.00125 0.008859375 1.74019667629e-11
365 1 -0.024215625 -0.00125 0.010040625 0.00154813293271
366 1 -0.024215625 -0.00125 0.011221875 0.000299131636816
367 1 -0.024215625 -0.00125 0.012403125 0.00154813293271
368 1 -0.024215625 -0.00125 0.013584375 0.162407426649
369 1 -0.024215625 -0.00125 0.014765625 0.149294323427
370 1 -0.024215625 -0.00125 0.015946875 0.00474645121499
371 1 -0.024215625 -0.00125 0.017128125 4.52227625942e-06
372 1 -0.024215625 -0.00125 0.018309375 0.00474645121499
373 1 -0.024215625 -0.00125 0.019490625 0.0138697081285
374 1 -0.024215625 -0.00125 0.020671875 0.0138696939255
375 1 -0.024215625 -0.00125 0.021853125 0.0138696939255
376 1 -0.024215625 -0.00125 0.023034375 0.0138696939255
377 1 -0.024215625 -0.00125 0.024215625 0.00154813293271
378 1 -0.024215625 -0.00125 0.025396875 0.000126658700522
379 1 -0.024215625 -0.00125 0.026578125 1.28754471296e-08
380 1 -0.024215625 -0.00125 0.027759375 0.0
381 1 -0.023034375 -0.00125 -0.027759375 0.0
382 1 -0.023034375 -0.00125 -0.026578125 0.0
383 1 -0.023034375 -0.00125 -0.025396875 0.00154813293271
384 1 -0.023034375 -0.00125 -0.024215625 0.00474645121499
385 1 -0.023034375 -0.00125 -0.023034375 0.0138696939255
386 1 -0.023034375 -0.00125 -0.021853125 0.0293069007767
387 1 -0.023034375 -0.00125 -0.020671875 0.000126658700522
388 1 -0.023034375 -0.00125 -0.019490625 0.000126658700522
389 1 -0.023034375 -0.00125 -0.018309375 0.000891017573599
390 1 -0.023034375 -0.00125 -0.017128125 0.430635859907
391 1 -0.023034375 -0.00125 -0.015946875 0.0698876476892
392 1 -0.023034375 -0.00125 -0.014765625 0.0
393 1 -0.023034375 -0.00125 -0.013584375 0.0
394 1 -0.023034375 -0.00125 -0.012403125 0.0
395 1 -0.023034375 -0.00125 -0.011221875 0.0
396 1 -0.023034375 -0.00125 -0.010040625 0.0
397 1 -0.023034375 -0.00125 -0.008859375 0.0
398 1 -0.023034375 -0.00125 -0.007678125 1.74019667629e-11
399 1 -0.023034375 -0.00125 -0.006496875 0.00179934798598
400 1 -0.023034375 -0.00125 -0.005315625 0.07461867463
401 1 -0.023034375 -0.00125 -0.004134375 0.08277044804
402 1 -0.023034375 -0.00125 -0.002953125 0.0746186412079
403 1 -0.023034375 -0.00125 -0.001771875 0.0293069007767
404 1 -0.023034375 -0.00125 -0.000590625 0.0113118914228
405 1 -0.023034375 -0.00125 0.000590625 0.0138696939255
406 1 -0.023034375 -0.00125 0.001771875 0.00668182974929
407 1 -0.023034375 -0.00125 0.002953125 0.123928763306
408 1 -0.023034375 -0.00125 0.004134375 0.0550579642476
409 1 -0.023034375 -0.00125 0.005315625 0.0746186412079
410 1 -0.023034375 -0.00125 0.006496875 0.0149103771607
411 1 -0.023034375 -0.00125 0.007678125 1.22156214432e-15
412 1 -0.023034375 -0.00125 0.008859375 1.22156214432e-15
413 1 -0.023034375 -0.00125 0.010040625 1.74019667629e-11
414 1 -0.023034375 -0.00125 0.011221875 0.000891017573599
415 1 -0.023034375 -0.00125 0.012403125 0.0
416 1 -0.023034375 -0.00125 0.013584375 0.0802909588674
417 1 -0.023034375 -0.00125 0.014765625 0.252716464147
418 1 -0.023034375 -0.00125 0.015946875 0.0293069007767
419 1 -0.023034375 -0.00125 0.017128125 0.01386971523
420 1 -0.023034375 -0.00125 0.018309375 0.0293069224194
421 1 -0.023034375 -0.00125 0.019490625 0.0187026608024
422 1 -0.023034375 -0.00125 0.020671875 0.0138696939255
423 1 -0.023034375 -0.00125 0.021853125 0.0138696939255
424 1 -0.023034375 -0.00125 0.023034375 0.00474645121499
425 1 -0.023034375 -0.00125 0.024215625 0.000126658700522
426 1 -0.023034375 -0.00125 0.025396875 1.74019667629e-11
427 1 -0.023034375 -0.00125 0.026578125 1.28754471296e-08
428 1 -0.023034375 -0.00125 0.027759375 0.00106278235535
429 1 -0.021853125 -0.00125 -0.028940625 0.0
430 1 -0.021853125 -0.00125 -0.027759375 0.0
431 1 -0.021853125 -0.00125 -0.026578125 2.79378975481e-22
432 1 -0.021853125 -0.00125 -0.025396875 6.01557630165e-07
433 1 -0.021853125 -0.00125 -0.024215625 0.000126658700522
434 1 -0.021853125 -0.00125 -0.023034375 0.0138696939255
435 1 -0.021853125 -0.00125 -0.021853125 0.0138696939255
436 1 -0.021853125 -0.00125 -0.020671875 0.00474645121499
437 1 -0.021853125 -0.00125 -0.019490625 0.00284458672872
438 1 -0.021853125 -0.00125 -0.018309375 6.01557630165e-07
439 1 -0.021853125 -0.00125 -0.017128125 0.252716464147
440 1 -0.021853125 -0.00125 -0.015946875 0.14929428164
441 1 -0.021853125 -0.00125 -0.014765625 0.0
442 1 -0.021853125 -0.00125 -0.013584375 0.0
443 1 -0.021853125 -0.00125 -0.012403125 0.0
444 1 -0.021853125 -0.00125 -0.011221875 0.0
445 1 -0.021853125 -0.00125 -0.010040625 1.74019667629e-11
446 1 -0.021853125 -0.00125 -0.008859375 0.000891017573599
447 1 -0.021853125 -0.00125 -0.007678125 0.0243767952624
448 1 -0.021853125 -0.00125 -0.006496875 0.119202705758
449 1 -0.021853125 -0.00125 -0.005315625 0.0243767756543
450 1 -0.021853125 -0.00125 -0.004134375 4.52220221462e-06
451 1 -0.021853125 -0.00125 -0.002953125 1.74019667629e-11
452 1 -0.021853125 -0.00125 -0.001771875 1.74019667629e-11
453 1 -0.021853125 -0.00125 -0.000590625 0.00154812961495
454 1 -0.021853125 -0.00125 0.000590625 0.0138696939255
455 1 -0.021853125 -0.00125 0.001771875 0.00154812961495
456 1 -0.021853125 -0.00125 0.002953125 0.00249557400626
457 1 -0.021853125 -0.00125 0.004134375 0.000891017573599
458 1 -0.021853125 -0.00125 0.005315625 0.0347170643937
459 1 -0.021853125 -0.00125 0.006496875 0.0220952407569
460 1 -0.021853125 -0.00125 0.007678125 0.0381872649833
461 1 -0.021853125 -0.00125 0.008859375 0.00474645121499
462 1 -0.021853125 -0.00125 0.010040625 0.0
463 1 -0.021853125 -0.00125 0.011221875 1.22156214432e-15
464 1 -0.021853125 -0.00125 0.012403125 0.0
465 1 -0.021853125 -0.00125 0.013584375 0.15935900069
466 1 -0.021853125 -0.00125 0.014765625 0.430635345024
467 1 -0.021853125 -0.00125 0.015946875 0.224469737872
468 1 -0.021853125 -0.00125 0.017128125 0.0698876476892
469 1 -0.021853125 -0.00125 0.018309375 0.0138696939255
470 1 -0.021853125 -0.00125 0.019490625 0.0138696939255
471 1 -0.021853125 -0.00125 0.020671875 0.00154813293271
472 1 -0.021853125 -0.00125 0.021853125 0.000126658700522
473 1 -0.021853125 -0.00125 0.023034375 0.000126658700522
474 1 -0.021853125 -0.00125 0.024215625 6.01557630165e-07
475 1 -0.021853125 -0.00125 0.025396875 0.0
476 1 -0.021853125 -0.00125 0.026578125 2.79378975481e-22
477 1 -0.021853125 -0.00125 0.027759375 0.000245543891342
478 1 -0.021853125 -0.00125 0.028940625 0.00466864259094
479 1 -0.020671875 -0.00125 -0.030121875 0.0
480 1 -0.020671875 -0.00125 -0.028940625 0.0
481 1 -0.020671875 -0.00125 -0.027759375 0.0
482 1 -0.020671875 -0.00125 -0.026578125 0.0
483 1 -0.020671875 -0.00125 -0.025396875 0.0
484 1 -0.020671875 -0.00125 -0.024215625 0.00154813293271
485 1 -0.020671875 -0.00125 -0.023034375 0.0138696939255
486 1 -0.020671875 -0.00125 -0.021853125 0.0138696939255
487 1 -0.020671875 -0.00125 -0.020671875 0.0138696939255
488 1 -0.020671875 -0.00125 -0.019490625 0.00284458672872
489 1 -0.020671875 -0.00125 -0.018309375 0.000126658700522
490 1 -0.020671875 -0.00125 -0.017128125 0.21372123369
491 1 -0.020671875 -0.00125 -0.015946875 0.186171540908
492 1 -0.020671875 -0.00125 -0.014765625 0.0
493 1 -0.020671875 -0.00125 -0.013584375 1.74019667629e-11
494 1 -0.020671875 -0.00125 -0.012403125 0.0
495 1 -0.020671875 -0.00125 -0.011221875 1.74019667629e-11
496 1 -0.020671875 -0.00125 -0.010040625 0.000891017573599
497 1 -0.020671875 -0.00125 -0.008859375 0.133535038668
498 1 -0.020671875 -0.00125 -0.007678125 0.230952152116
499 1 -0.020671875 -0.00125 -0.006496875 0.0869646497893
500 1 -0.020671875 -0.00125 -0.005315625 0.000299132858986
501 1 -0.020671875 -0.00125 -0.004134375 0.00474645121499
502 1 -0.020671875 -0.00125 -0.002953125 0.0243767952624
503 1 -0.020671875 -0.00125 -0.001771875 0.0443323240644
504 1 -0.020671875 -0.00125 -0.000590625 0.00118682874801
505 1 -0.020671875 -0.00125 0.000590625 1.22156214432e-15
506 1 -0.020671875 -0.00125 0.001771875 6.01557630165e-07
507 1 -0.020671875 -0.00125 0.002953125 1.74019667629e-11
508 1 -0.020671875 -0.00125 0.004134375 0.0
509 1 -0.020671875 -0.00125 0.005315625 0.000126657572948
510 1 -0.020671875 -0.00125 0.006496875 0.00284459309142
511 1 -0.020671875 -0.00125 0.007678125 0.186171540908
512 1 -0.020671875 -0.00125 0.008859375 0.196692230435
513 1 -0.020671875 -0.00125 0.010040625 0.091233852548
514 1 -0.020671875 -0.00125 0.011221875 0.000126658700522
515 1 -0.020671875 -0.00125 0.012403125 0.0
516 1 -0.020671875 -0.00125 0.013584375 0.337897955943
517 1 -0.020671875 -0.00125 0.014765625 0.292342717184
518 1 -0.020671875 -0.00125 0.015946875 0.0698876476892
519 1 -0.020671875 -0.00125 0.017128125 0.0138696939255
520 1 -0.020671875 -0.00125 0.018309375 0.0138696939255
521 1 -0.020671875 -0.00125 0.019490625 0.0138696939255
522 1 -0.020671875 -0.00125 0.020671875 0.0138696939255
523 1 -0.020671875 -0.00125 0.021853125 0.00154813293271
524 1 -0.020671875 -0.00125 0.023034375 0.000126658700522
525 1 -0.020671875 -0.00125 0.024215625 0.000126658700522
526 1 -0.020671875 -0.00125 0.025396875 0.0
527 1 -0.020671875 -0.00125 0.026578125 0.0
528 1 -0.020671875 -0.00125 0.027759375 0.0
529 1 -0.020671875 -0.00125 0.028940625 0.0
530 1 -0.020671875 -0.00125 0.030121875 2.52587523623e-07
531 1 -0.019490625 -0.00125 -0.031303125 0.0
532 1 -0.019490625 -0.00125 -0.030121875 0.0
533 1 -0.019490625 -0.00125 -0.028940625 0.0
534 1 -0.019490625 -0.00125 -0.027759375 2.79378975481e-22
535 1 -0.019490625 -0.00125 -0.026578125 7.8331402925e-10
536 1 -0.019490625 -0.00125 -0.025396875 2.79378975481e-22
537 1 -0.019490625 -0.00125 -0.024215625 1.77731074088e-06
538 1 -0.019490625 -0.00125 -0.023034375 0.000535662176186
539 1 -0.019490625 -0.00125 -0.021853125 0.00284458672872
540 1 -0.019490625 -0.00125 -0.020671875 0.0138696939255
541 1 -0.019490625 -0.00125 -0.019490625 0.0138696939255
542 1 -0.019490625 -0.00125 -0.018309375 0.00474645121499
543 1 -0.019490625 -0.00125 -0.017128125 0.154307310461
544 1 -0.019490625 -0.00125 -0.015946875 0.491049609779
545 1 -0.019490625 -0.00125 -0.014765625 0.496643714826
546 1 -0.019490625 -0.00125 -0.013584375 0.00518995872069
547 1 -0.019490625 -0.00125 -0.012403125 0.00228022814162
548 1 -0.019490625 -0.00125 -0.011221875 0.131597938701
549 1 -0.019490625 -0.00125 -0.010040625 0.136454910525
550 1 -0.019490625 -0.00125 -0.008859375 0.114532095179
551 1 -0.019490625 -0.00125 -0.007678125 0.15935900069
552 1 -0.019490625 -0.00125 -0.006496875 0.0564722587203
553 1 -0.019490625 -0.00125 -0.005315625 0.1117572106
554 1 -0.019490625 -0.00125 -0.004134375 0.141358161149
555 1 -0.019490625 -0.00125 -0.002953125 0.126789227943