ITEM: TIMESTEP
0
ITEM: NUMBER OF ATOMS
3080
ITEM: BOX BOUNDS ss ss ss
-3.7007399999999996e-02 3.7007399999999996e-02
-2.0002499999999999e-03 2.5000000000000004e-07
-3.7007399999999996e-02 3.7007399999999996e-02
ITEM: ATOMS id type x y z c_1
0 1 -0.037209375 -0.00125 -0.000590625 1.0
1 1 -0.036028125 -0.00125 -0.007678125 0.0
2 1 -0.036028125 -0.00125 -0.006496875 0.0234492796967
3 1 -0.036028125 -0.00125 -0.005315625 0.538039342757
4 1 -0.036028125 -0.00125 -0.004134375 0.381432457559
5 1 -0.036028125 -0.00125 -0.002953125 0.101768821183
6 1 -0.036028125 -0.00125 -0.001771875 0.614096812765
7 1 -0.036028125 -0.00125 -0.000590625 0.232375684815
8 1 -0.036028125 -0.00125 0.000590625 0.0173077276744
9 1 -0.036028125 -0.00125 0.001771875 0.0878124945944
10 1 -0.036028125 -0.00125 0.002953125 0.0
11 1 -0.036028125 -0.00125 0.004134375 0.0
12 1 -0.036028125 -0.00125 0.005315625 0.0
13 1 -0.036028125 -0.00125 0.006496875 0.0
14 1 -0.036028125 -0.00125 0.007678125 0.000455413315469
15 1 -0.034846875 -0.00125 -0.011221875 0.0
16 1 -0.034846875 -0.00125 -0.010040625 0.226627684957
17 1 -0.034846875 -0.00125 -0.008859375 0.182529172436
18 1 -0.034846875 -0.00125 -0.007678125 0.0
19 1 -0.034846875 -0.00125 -0.006496875 1.28754471296e-08
20 1 -0.034846875 -0.00125 -0.005315625 0.000891023127979
21 1 -0.034846875 -0.00125 -0.004134375 0.0347170407724
22 1 -0.034846875 -0.00125 -0.002953125 0.5
23 1 -0.034846875 -0.00125 -0.001771875 0.569364654976
24 1 -0.034846875 -0.00125 -0.000590625 0.522376508072
25 1 -0.034846875 -0.00125 0.000590625 0.186171540908
26 1 -0.034846875 -0.00125 0.001771875 0.0243767756543
27 1 -0.034846875 -0.00125 0.002953125 0.0
28 1 -0.034846875 -0.00125 0.004134375 0.0
29 1 -0.034846875 -0.00125 0.005315625 0.0
30 1 -0.034846875 -0.00125 0.006496875 0.0
31 1 -0.034846875 -0.00125 0.007678125 0.00713501987779
32 1 -0.034846875 -0.00125 0.008859375 0.0339792945837
33 1 -0.034846875 -0.00125 0.010040625 3.70458005324e-08
34 1 -0.034846875 -0.00125 0.011221875 0.000455413315469
35 1 -0.033665625 -0.00125 -0.013584375 0.0312305564595
36 1 -0.033665625 -0.00125 -0.012403125 0.0075399670332
37 1 -0.033665625 -0.00125 -0.011221875 0.0
38 1 -0.033665625 -0.00125 -0.010040625 0.186171540908
39 1 -0.033665625 -0.00125 -0.008859375 0.186171540908
40 1 -0.033665625 -0.00125 -0.007678125 0.0
41 1 -0.033665625 -0.00125 -0.006496875 0.0
42 1 -0.033665625 -0.00125 -0.005315625 0.0
43 1 -0.033665625 -0.00125 -0.004134375 0.00154813293271
44 1 -0.033665625 -0.00125 -0.002953125 0.224469737872
45 1 -0.033665625 -0.00125 -0.001771875 0.321195978177
46 1 -0.033665625 -0.00125 -0.000590625 0.491049562965
47 1 -0.033665625 -0.00125 0.000590625 0.292342717184
48 1 -0.033665625 -0.00125 0.001771875 0.00474645121499
49 1 -0.033665625 -0.00125 0.002953125 0.0
50 1 -0.033665625 -0.00125 0.004134375 0.0
51 1 -0.033665625 -0.00125 0.005315625 0.0
52 1 -0.033665625 -0.00125 0.006496875 0.0
53 1 -0.033665625 -0.00125 0.007678125 0.0
54 1 -0.033665625 -0.00125 0.008859375 0.00474644221021
55 1 -0.033665625 -0.00125 0.010040625 0.0175126135393
56 1 -0.033665625 -0.00125 0.011221875 0.0195453344755
57 1 -0.033665625 -0.00125 0.012403125 0.0920225846461
58 1 -0.033665625 -0.00125 0.013584375 0.0130973991511
59 1 -0.032484375 -0.00125 -0.018309375 0.0
60 1 -0.032484375 -0.00125 -0.017128125 0.00106278235535
61 1 -0.032484375 -0.00125 -0.015946875 0.212048512849
62 1 -0.032484375 -0.00125 -0.014765625 0.302630701854
63 1 -0.032484375 -0.00125 -0.013584375 0.0822820302317
64 1 -0.032484375 -0.00125 -0.012403125 0.0229929886664
65 1 -0.032484375 -0.00125 -0.011221875 0.154307352577
66 1 -0.032484375 -0.00125 -0.010040625 0.48545573937
67 1 -0.032484375 -0.00125 -0.008859375 0.43063562587
68 1 -0.032484375 -0.00125 -0.007678125 0.00154813127383
69 1 -0.032484375 -0.00125 -0.006496875 1.74019667629e-11
70 1 -0.032484375 -0.00125 -0.005315625 2.79378975481e-22
71 1 -0.032484375 -0.00125 -0.004134375 2.79378975481e-22
72 1 -0.032484375 -0.00125 -0.002953125 0.000535660654302
73 1 -0.032484375 -0.00125 -0.001771875 0.146305587116
74 1 -0.032484375 -0.00125 -0.000590625 0.177454988622
75 1 -0.032484375 -0.00125 0.000590625 0.441503391552
76 1 -0.032484375 -0.00125 0.001771875 0.0335972786663
77 1 -0.032484375 -0.00125 0.002953125 1.74014005978e-11
78 1 -0.032484375 -0.00125 0.004134375 0.000198679956635
79 1 -0.032484375 -0.00125 0.005315625 1.77729209249e-06
80 1 -0.032484375 -0.00125 0.006496875 0.0
81 1 -0.032484375 -0.00125 0.007678125 0.0
82 1 -0.032484375 -0.00125 0.008859375 2.79378975481e-22
83 1 -0.032484375 -0.00125 0.010040625 0.00474644221021
84 1 -0.032484375 -0.00125 0.011221875 0.0335974064356
85 1 -0.032484375 -0.00125 0.012403125 0.0187026185247
86 1 -0.032484375 -0.00125 0.013584375 0.0881751978426
87 1 -0.032484375 -0.00125 0.014765625 0.1936761417
88 1 -0.032484375 -0.00125 0.015946875 4.87011454992e-06
89 1 -0.032484375 -0.00125 0.017128125 5.44412977554e-09
90 1 -0.032484375 -0.00125 0.018309375 0.00920066229086
91 1 -0.031303125 -0.00125 -0.019490625 0.0
92 1 -0.031303125 -0.00125 -0.018309375 0.0
93 1 -0.031303125 -0.00125 -0.017128125 1.74019667629e-11
94 1 -0.031303125 -0.00125 -0.015946875 0.000126657572948
95 1 -0.031303125 -0.00125 -0.014765625 0.0138696939255
96 1 -0.031303125 -0.00125 -0.013584375 0.14929407271
97 1 -0.031303125 -0.00125 -0.012403125 0.149294323427
98 1 -0.031303125 -0.00125 -0.011221875 0.390374014268
99 1 -0.031303125 -0.00125 -0.010040625 0.123928325831
100 1 -0.031303125 -0.00125 -0.008859375 0.000126658700522
101 1 -0.031303125 -0.00125 -0.007678125 0.0
102 1 -0.031303125 -0.00125 -0.006496875 0.0
103 1 -0.031303125 -0.00125 -0.005315625 0.0
104 1 -0.031303125 -0.00125 -0.004134375 0.0
105 1 -0.031303125 -0.00125 -0.002953125 0.0
106 1 -0.031303125 -0.00125 -0.001771875 0.000126657572948
107 1 -0.031303125 -0.00125 -0.000590625 0.00565999405337
108 1 -0.031303125 -0.00125 0.000590625 0.292342717184
109 1 -0.031303125 -0.00125 0.001771875 0.224470234239
110 1 -0.031303125 -0.00125 0.002953125 0.263675094712
111 1 -0.031303125 -0.00125 0.004134375 0.327872944208
112 1 -0.031303125 -0.00125 0.005315625 0.149294783073
113 1 -0.031303125 -0.00125 0.006496875 0.00284458163855
114 1 -0.031303125 -0.00125 0.007678125 6.01557630165e-07
115 1 -0.031303125 -0.00125 0.008859375 0.00249557865471
116 1 -0.031303125 -0.00125 0.010040625 0.0381872278205
117 1 -0.031303125 -0.00125 0.011221875 0.123928365601
118 1 -0.031303125 -0.00125 0.012403125 0.0293069224194
119 1 -0.031303125 -0.00125 0.013584375 0.0364315288618
120 1 -0.031303125 -0.00125 0.014765625 0.252716464147
121 1 -0.031303125 -0.00125 0.015946875 6.01557630165e-07
122 1 -0.031303125 -0.00125 0.017128125 0.0
123 1 -0.031303125 -0.00125 0.018309375 0.0
124 1 -0.031303125 -0.00125 0.019490625 8.50218305249e-07
125 1 -0.030121875 -0.00125 -0.020671875 2.52587523623e-07
126 1 -0.030121875 -0.00125 -0.019490625 2.79378975481e-22
127 1 -0.030121875 -0.00125 -0.018309375 0.0
128 1 -0.030121875 -0.00125 -0.017128125 0.0
129 1 -0.030121875 -0.00125 -0.015946875 0.0
130 1 -0.030121875 -0.00125 -0.014765625 0.000126658700522
131 1 -0.030121875 -0.00125 -0.013584375 0.167516128844
132 1 -0.030121875 -0.00125 -0.012403125 0.00474645121499
133 1 -0.030121875 -0.00125 -0.011221875 0.00154812961495
134 1 -0.030121875 -0.00125 -0.010040625 4.52227625942e-06
135 1 -0.030121875 -0.00125 -0.008859375 4.52227625942e-06
136 1 -0.030121875 -0.00125 -0.007678125 4.52220221462e-06
137 1 -0.030121875 -0.00125 -0.006496875 7.02299466978e-08
138 1 -0.030121875 -0.00125 -0.005315625 6.01557630165e-07
139 1 -0.030121875 -0.00125 -0.004134375 0.00154812961495
140 1 -0.030121875 -0.00125 -0.002953125 0.0622852805866
141 1 -0.030121875 -0.00125 -0.001771875 0.114532075754
142 1 -0.030121875 -0.00125 -0.000590625 0.181992563148
143 1 -0.030121875 -0.00125 0.000590625 0.256656249593
144 1 -0.030121875 -0.00125 0.001771875 0.569364093285
145 1 -0.030121875 -0.00125 0.002953125 0.580550471812
146 1 -0.030121875 -0.00125 0.004134375 0.21372123369
147 1 -0.030121875 -0.00125 0.005315625 0.0622852805866
148 1 -0.030121875 -0.00125 0.006496875 0.03195284701
149 1 -0.030121875 -0.00125 0.007678125 0.00154813293271
150 1 -0.030121875 -0.00125 0.008859375 0.00154812961495
151 1 -0.030121875 -0.00125 0.010040625 0.0999860863438
152 1 -0.030121875 -0.00125 0.011221875 0.149294323427
153 1 -0.030121875 -0.00125 0.012403125 0.00668184101894
154 1 -0.030121875 -0.00125 0.013584375 0.0267810609157
155 1 -0.030121875 -0.00125 0.014765625 0.252716464147
156 1 -0.030121875 -0.00125 0.015946875 0.0
157 1 -0.030121875 -0.00125 0.017128125 0.0
158 1 -0.030121875 -0.00125 0.018309375 0.0
159 1 -0.030121875 -0.00125 0.019490625 0.0
160 1 -0.030121875 -0.00125 0.020671875 0.00466864259094
161 1 -0.028940625 -0.00125 -0.021853125 2.52587523623e-07
162 1 -0.028940625 -0.00125 -0.020671875 0.0
163 1 -0.028940625 -0.00125 -0.019490625 1.77731074088e-06
164 1 -0.028940625 -0.00125 -0.018309375 0.000126658700522
165 1 -0.028940625 -0.00125 -0.017128125 0.00154813293271
166 1 -0.028940625 -0.00125 -0.015946875 0.000126658700522
167 1 -0.028940625 -0.00125 -0.014765625 0.0622852495443
168 1 -0.028940625 -0.00125 -0.013584375 0.366907865402
169 1 -0.028940625 -0.00125 -0.012403125 0.091233852548
170 1 -0.028940625 -0.00125 -0.011221875 1.74019667629e-11
171 1 -0.028940625 -0.00125 -0.010040625 4.52220221462e-06
172 1 -0.028940625 -0.00125 -0.008859375 4.52220221462e-06
173 1 -0.028940625 -0.00125 -0.007678125 4.52220221462e-06
174 1 -0.028940625 -0.00125 -0.006496875 4.52220221462e-06
175 1 -0.028940625 -0.00125 -0.005315625 0.00249557400626
176 1 -0.028940625 -0.00125 -0.004134375 0.0138696939255
177 1 -0.028940625 -0.00125 -0.002953125 0.0912339065983
178 1 -0.028940625 -0.00125 -0.001771875 0.314525490432
179 1 -0.028940625 -0.00125 -0.000590625 0.235286796702
180 1 -0.028940625 -0.00125 0.000590625 0.254904671976
181 1 -0.028940625 -0.00125 0.001771875 0.159358746116
182 1 -0.028940625 -0.00125 0.002953125 0.159358746116
183 1 -0.028940625 -0.00125 0.004134375 0.00668184101894
184 1 -0.028940625 -0.00125 0.005315625 0.0
185 1 -0.028940625 -0.00125 0.006496875 1.77729209249e-06
186 1 -0.028940625 -0.00125 0.007678125 4.52220221462e-06
187 1 -0.028940625 -0.00125 0.008859375 0.000299131636816
188 1 -0.028940625 -0.00125 0.010040625 0.0698876476892
189 1 -0.028940625 -0.00125 0.011221875 0.091233852548
190 1 -0.028940625 -0.00125 0.012403125 0.01386971523
191 1 -0.028940625 -0.00125 0.013584375 0.154307352577
192 1 -0.028940625 -0.00125 0.014765625 0.114532075754
193 1 -0.028940625 -0.00125 0.015946875 0.0
194 1 -0.028940625 -0.00125 0.017128125 0.0
195 1 -0.028940625 -0.00125 0.018309375 0.0
196 1 -0.028940625 -0.00125 0.019490625 0.0
197 1 -0.028940625 -0.00125 0.020671875 0.000245540111831
198 1 -0.028940625 -0.00125 0.021853125 0.00466864259094
199 1 -0.027759375 -0.00125 -0.024215625 0.0
200 1 -0.027759375 -0.00125 -0.023034375 0.0
201 1 -0.027759375 -0.00125 -0.021853125 1.61610918776e-06
202 1 -0.027759375 -0.00125 -0.020671875 0.0
203 1 -0.027759375 -0.00125 -0.019490625 0.000126658700522
204 1 -0.027759375 -0.00125 -0.018309375 0.000126658700522
205 1 -0.027759375 -0.00125 -0.017128125 0.0293069224194
206 1 -0.027759375 -0.00125 -0.015946875 0.0509111013046
207 1 -0.027759375 -0.00125 -0.014765625 0.0443322841124
208 1 -0.027759375 -0.00125 -0.013584375 0.283498603651
209 1 -0.027759375 -0.00125 -0.012403125 0.186171540908
210 1 -0.027759375 -0.00125 -0.011221875 1.74019667629e-11
211 1 -0.027759375 -0.00125 -0.010040625 1.74019667629e-11
212 1 -0.027759375 -0.00125 -0.008859375 1.74019667629e-11
213 1 -0.027759375 -0.00125 -0.007678125 1.74019667629e-11
214 1 -0.027759375 -0.00125 -0.006496875 2.79378975481e-22
215 1 -0.027759375 -0.00125 -0.005315625 6.01557630165e-07
216 1 -0.027759375 -0.00125 -0.004134375 1.74019667629e-11
217 1 -0.027759375 -0.00125 -0.002953125 4.52220221462e-06
218 1 -0.027759375 -0.00125 -0.001771875 0.000126657572948
219 1 -0.027759375 -0.00125 -0.000590625 0.000299131636816
220 1 -0.027759375 -0.00125 0.000590625 0.000535662176186
221 1 -0.027759375 -0.00125 0.001771875 4.52220221462e-06
222 1 -0.027759375 -0.00125 0.002953125 6.01557630165e-07
223 1 -0.027759375 -0.00125 0.004134375 1.74019667629e-11
224 1 -0.027759375 -0.00125 0.005315625 0.0
225 1 -0.027759375 -0.00125 0.006496875 0.0
226 1 -0.027759375 -0.00125 0.007678125 0.0
227 1 -0.027759375 -0.00125 0.008859375 0.0
228 1 -0.027759375 -0.00125 0.010040625 0.0698876476892
229 1 -0.027759375 -0.00125 0.011221875 0.252716464147
230 1 -0.027759375 -0.00125 0.012403125 0.0827704828178
231 1 -0.027759375 -0.00125 0.013584375 0.395964703922
232 1 -0.027759375 -0.00125 0.014765625 0.091233852548
233 1 -0.027759375 -0.00125 0.015946875 0.0
234 1 -0.027759375 -0.00125 0.017128125 0.0
235 1 -0.027759375 -0.00125 0.018309375 0.0
236 1 -0.027759375 -0.00125 0.019490625 1.60801117159e-09
237 1 -0.027759375 -0.00125 0.020671875 0.000126658700522
238 1 -0.027759375 -0.00125 0.021853125 0.000245540111831
239 1 -0.027759375 -0.00125 0.023034375 0.0
240 1 -0.027759375 -0.00125 0.024215625 0.0
241 1 -0.026578125 -0.00125 -0.026578125 0.0
242 1 -0.026578125 -0.00125 -0.025396875 0.0
243 1 -0.026578125 -0.00125 -0.024215625 3.14925560351e-13
244 1 -0.026578125 -0.00125 -0.023034375 0.00118682874801
245 1 -0.026578125 -0.00125 -0.021853125 0.00284458672872
246 1 -0.026578125 -0.00125 -0.020671875 0.00284458672872
247 1 -0.026578125 -0.00125 -0.019490625 6.56188178133e-05
248 1 -0.026578125 -0.00125 -0.018309375 1.58379826604e-05
249 1 -0.026578125 -0.00125 -0.017128125 0.036431516761
250 1 -0.026578125 -0.00125 -0.015946875 0.416094119369
251 1 -0.026578125 -0.00125 -0.014765625 0.141358161149
252 1 -0.026578125 -0.00125 -0.013584375 0.0750186721414
253 1 -0.026578125 -0.00125 -0.012403125 0.387021104274
254 1 -0.026578125 -0.00125 -0.011221875 0.00154813127383
255 1 -0.026578125 -0.00125 -0.010040625 2.79378975481e-22
256 1 -0.026578125 -0.00125 -0.008859375 2.79378975481e-22
257 1 -0.026578125 -0.00125 -0.007678125 0.0
258 1 -0.026578125 -0.00125 -0.006496875 9.25291560019e-26
259 1 -0.026578125 -0.00125 -0.005315625 4.52220221462e-06
260 1 -0.026578125 -0.00125 -0.004134375 1.5837818957e-05
261 1 -0.026578125 -0.00125 -0.002953125 1.58379826604e-05
262 1 -0.026578125 -0.00125 -0.001771875 1.40785443464e-30
263 1 -0.026578125 -0.00125 -0.000590625 1.40785443464e-30
264 1 -0.026578125 -0.00125 0.000590625 1.27653918126e-20
265 1 -0.026578125 -0.00125 0.001771875 0.0
266 1 -0.026578125 -0.00125 0.002953125 0.0
267 1 -0.026578125 -0.00125 0.004134375 2.79378975481e-22
268 1 -0.026578125 -0.00125 0.005315625 0.0
269 1 -0.026578125 -0.00125 0.006496875 7.49709589486e-44
270 1 -0.026578125 -0.00125 0.007678125 0.0
271 1 -0.026578125 -0.00125 0.008859375 0.0
272 1 -0.026578125 -0.00125 0.010040625 0.000375788527528
273 1 -0.026578125 -0.00125 0.011221875 0.00474644761307
274 1 -0.026578125 -0.00125 0.012403125 6.01551003484e-07
275 1 -0.026578125 -0.00125 0.013584375 0.362999590456
276 1 -0.026578125 -0.00125 0.014765625 0.00734859258327
277 1 -0.026578125 -0.00125 0.015946875 0.0
278 1 -0.026578125 -0.00125 0.017128125 1.5838087899e-05
279 1 -0.026578125 -0.00125 0.018309375 0.000126657572948
280 1 -0.026578125 -0.00125 0.019490625 0.00284458672872
281 1 -0.026578125 -0.00125 0.020671875 0.0207856853608
282 1 -0.026578125 -0.00125 0.021853125 0.000535662176186
283 1 -0.026578125 -0.00125 0.023034375 2.79378975481e-22
284 1 -0.026578125 -0.00125 0.024215625 0.0
285 1 -0.026578125 -0.00125 0.025396875 0.0
286 1 -0.026578125 -0.00125 0.026578125 0.0
287 1 -0.025396875 -0.00125 -0.026578125 0.0
288 1 -0.025396875 -0.00125 -0.025396875 0.0
289 1 -0.025396875 -0.00125 -0.024215625 1.74019667629e-11
290 1 -0.025396875 -0.00125 -0.023034375 0.000126658700522
291 1 -0.025396875 -0.00125 -0.021853125 0.0138696939255
292 1 -0.025396875 -0.00125 -0.020671875 0.0138696939255
293 1 -0.025396875 -0.00125 -0.019490625 0.00154813293271
294 1 -0.025396875 -0.00125 -0.018309375 0.000126658700522
295 1 -0.025396875 -0.00125 -0.017128125 6.01557630165e-07
296 1 -0.025396875 -0.00125 -0.015946875 0.133535038668
297 1 -0.025396875 -0.00125 -0.014765625 0.5
298 1 -0.025396875 -0.00125 -0.013584375 0.167516128844
299 1 -0.025396875 -0.00125 -0.012403125 0.718709829977
300 1 -0.025396875 -0.00125 -0.011221875 0.123928325831
301 1 -0.025396875 -0.00125 -0.010040625 0.0
302 1 -0.025396875 -0.00125 -0.008859375 1.74019667629e-11
303 1 -0.025396875 -0.00125 -0.007678125 0.0
304 1 -0.025396875 -0.00125 -0.006496875 3.07879020573e-05
305 1 -0.025396875 -0.00125 -0.005315625 0.000891017573599
306 1 -0.025396875 -0.00125 -0.004134375 0.0443323240644
307 1 -0.025396875 -0.00125 -0.002953125 0.0138696939255
308 1 -0.025396875 -0.00125 -0.001771875 0.00474644221021
309 1 -0.025396875 -0.00125 -0.000590625 0.0175126135393
310 1 -0.025396875 -0.00125 0.000590625 0.0113119102595
311 1 -0.025396875 -0.00125 0.001771875 0.000891017573599
312 1 -0.025396875 -0.00125 0.002953125 0.000891023127979
313 1 -0.025396875 -0.00125 0.004134375 0.00207820714601
314 1 -0.025396875 -0.00125 0.005315625 0.0032259559905
315 1 -0.025396875 -0.00125 0.006496875 0.00805645230067
316 1 -0.025396875 -0.00125 0.007678125 1.22156214432e-15
317 1 -0.025396875 -0.00125 0.008859375 0.0
318 1 -0.025396875 -0.00125 0.010040625 0.0
319 1 -0.025396875 -0.00125 0.011221875 0.0
320 1 -0.025396875 -0.00125 0.012403125 0.0
321 1 -0.025396875 -0.00125 0.013584375 0.238544232212
322 1 -0.025396875 -0.00125 0.014765625 6.01557630165e-07
323 1 -0.025396875 -0.00125 0.015946875 0.0
324 1 -0.025396875 -0.00125 0.017128125 0.000126658700522
325 1 -0.025396875 -0.00125 0.018309375 0.0138696939255
326 1 -0.025396875 -0.00125 0.019490625 0.0138696939255
327 1 -0.025396875 -0.00125 0.020671875 0.000126658700522
328 1 -0.025396875 -0.00125 0.021853125 6.01557630165e-07
329 1 -0.025396875 -0.00125 0.023034375 0.0
330 1 -0.025396875 -0.00125 0.024215625 0.0
331 1 -0.025396875 -0.00125 0.025396875 0.0
332 1 -0.025396875 -0.00125 0.026578125 5.59620582789e-14
333 1 -0.024215625 -0.00125 -0.027759375 0.0
334 1 -0.024215625 -0.00125 -0.026578125 0.0
335 1 -0.024215625 -0.00125 -0.025396875 0.0
336 1 -0.024215625 -0.00125 -0.024215625 0.0
337 1 -0.024215625 -0.00125 -0.023034375 0.000126658700522
338 1 -0.024215625 -0.00125 -0.021853125 0.0293069007767
339 1 -0.024215625 -0.00125 -0.020671875 0.0138696939255
340 1 -0.024215625 -0.00125 -0.019490625 0.0138696939255
341 1 -0.024215625 -0.00125 -0.018309375 0.000891023127979
342 1 -0.024215625 -0.00125 -0.017128125 0.00668182974929
343 1 -0.024215625 -0.00125 -0.015946875 0.01386971523
344 1 -0.024215625 -0.00125 -0.014765625 0.470910937833
345 1 -0.024215625 -0.00125 -0.013584375 0.222314008411
346 1 -0.024215625 -0.00125 -0.012403125 0.59844434493
347 1 -0.024215625 -0.00125 -0.011221875 0.303423296049
348 1 -0.024215625 -0.00125 -0.010040625 0.0138696939255
349 1 -0.024215625 -0.00125 -0.008859375 0.000126657572948
350 1 -0.024215625 -0.00125 -0.007678125 0.0107214510125
351 1 -0.024215625 -0.00125 -0.006496875 0.0267810609157
352 1 -0.024215625 -0.00125 -0.005315625 0.0293069007767
353 1 -0.024215625 -0.00125 -0.004134375 0.0347170407724
354 1 -0.024215625 -0.00125 -0.002953125 0.165468748191
355 1 -0.024215625 -0.00125 -0.001771875 0.123928325831
356 1 -0.024215625 -0.00125 -0.000590625 0.0895173223756
357 1 -0.024215625 -0.00125 0.000590625 0.111941538621
358 1 -0.024215625 -0.00125 0.001771875 0.159358746116
359 1 -0.024215625 -0.00125 0.002953125 0.139391385346
360 1 -0.024215625 -0.00125 0.004134375 0.139391385346
361 1 -0.024215625 -0.00125 0.005315625 0.155314564996
362 1 -0.024215625 -0.00125 0.006496875 0.19247188731
363 1 -0.024215625 -0.00125 0.007678125 0.000126657572948
364 1 -0.024215625 -0.00125 0.008859375 0.0
365 1 -0.024215625 -0.00125 0.010040625 0.0
366 1 -0.024215625 -0.00125 0.011221875 0.0
367 1 -0.024215625 -0.00125 0.012403125 0.0
368 1 -0.024215625 -0.00125 0.013584375 0.186171540908
369 1 -0.024215625 -0.00125 0.014765625 1.74019667629e-11
370 1 -0.024215625 -0.00125 0.015946875 0.000126658700522
371 1 -0.024215625 -0.00125 0.017128125 0.000126658700522
372 1 -0.024215625 -0.00125 0.018309375 0.0138696939255
373 1 -0.024215625 -0.00125 0.019490625 0.0138696939255
374 1 -0.024215625 -0.00125 0.020671875 0.000126658700522
375 1 -0.024215625 -0.00125 0.021853125 0.0
376 1 -0.024215625 -0.00125 0.023034375 0.0
377 1 -0.024215625 -0.00125 0.024215625 0.0
378 1 -0.024215625 -0.00125 0.025396875 0.0
379 1 -0.024215625 -0.00125 0.026578125 0.0
380 1 -0.024215625 -0.00125 0.027759375 1.7269595626e-06
381 1 -0.023034375 -0.00125 -0.027759375 0.00106278235535
382 1 -0.023034375 -0.00125 -0.026578125 2.79378975481e-22
383 1 -0.023034375 -0.00125 -0.025396875 0.0
384 1 -0.023034375 -0.00125 -0.024215625 0.0
385 1 -0.023034375 -0.00125 -0.023034375 0.00154813293271
386 1 -0.023034375 -0.00125 -0.021853125 0.0243767756543
387 1 -0.023034375 -0.00125 -0.020671875 0.0443322841124
388 1 -0.023034375 -0.00125 -0.019490625 0.0267810506
389 1 -0.023034375 -0.00125 -0.018309375 0.0293069007767
390 1 -0.023034375 -0.00125 -0.017128125 0.00668182974929
391 1 -0.023034375 -0.00125 -0.015946875 0.00154813293271
392 1 -0.023034375 -0.00125 -0.014765625 0.292342717184
393 1 -0.023034375 -0.00125 -0.013584375 0.326759635518
394 1 -0.023034375 -0.00125 -0.012403125 0.488812258104
395 1 -0.023034375 -0.00125 -0.011221875 0.343471904739
396 1 -0.023034375 -0.00125 -0.010040625 0.169569358233
397 1 -0.023034375 -0.00125 -0.008859375 0.091233852548
398 1 -0.023034375 -0.00125 -0.007678125 0.17575893658
399 1 -0.023034375 -0.00125 -0.006496875 0.208376116436
400 1 -0.023034375 -0.00125 -0.005315625 0.332327069371
401 1 -0.023034375 -0.00125 -0.004134375 0.332327069371
402 1 -0.023034375 -0.00125 -0.002953125 0.51118821003
403 1 -0.023034375 -0.00125 -0.001771875 0.3791971081
404 1 -0.023034375 -0.00125 -0.000590625 0.212436667376
405 1 -0.023034375 -0.00125 0.000590625 0.335669056654
406 1 -0.023034375 -0.00125 0.001771875 0.281290216208
407 1 -0.023034375 -0.00125 0.002953125 0.281290170023
408 1 -0.023034375 -0.00125 0.004134375 0.159358746116
409 1 -0.023034375 -0.00125 0.005315625 0.0443323240644
410 1 -0.023034375 -0.00125 0.006496875 0.0683383856875
411 1 -0.023034375 -0.00125 0.007678125 0.0964521901881
412 1 -0.023034375 -0.00125 0.008859375 0.0107214510125
413 1 -0.023034375 -0.00125 0.010040625 6.01557630165e-07
414 1 -0.023034375 -0.00125 0.011221875 1.74019667629e-11
415 1 -0.023034375 -0.00125 0.012403125 1.74019667629e-11
416 1 -0.023034375 -0.00125 0.013584375 0.186171540908
417 1 -0.023034375 -0.00125 0.014765625 0.0
418 1 -0.023034375 -0.00125 0.015946875 0.000126658700522
419 1 -0.023034375 -0.00125 0.017128125 0.0138696939255
420 1 -0.023034375 -0.00125 0.018309375 0.0138696939255
421 1 -0.023034375 -0.00125 0.019490625 0.00284458672872
422 1 -0.023034375 -0.00125 0.020671875 0.000126658700522
423 1 -0.023034375 -0.00125 0.021853125 0.0
424 1 -0.023034375 -0.00125 0.023034375 0.0
425 1 -0.023034375 -0.00125 0.024215625 0.0
426 1 -0.023034375 -0.00125 0.025396875 0.0
427 1 -0.023034375 -0.00125 0.026578125 0.0
428 1 -0.023034375 -0.00125 0.027759375 0.0
429 1 -0.021853125 -0.00125 -0.028940625 0.144907186803
430 1 -0.021853125 -0.00125 -0.027759375 0.0025548876984
431 1 -0.021853125 -0.00125 -0.026578125 2.79378975481e-22
432 1 -0.021853125 -0.00125 -0.025396875 0.0
433 1 -0.021853125 -0.00125 -0.024215625 0.0
434 1 -0.021853125 -0.00125 -0.023034375 0.00474644221021
435 1 -0.021853125 -0.00125 -0.021853125 0.149294365213
436 1 -0.021853125 -0.00125 -0.020671875 0.091233852548
437 1 -0.021853125 -0.00125 -0.019490625 0.0267810506
438 1 -0.021853125 -0.00125 -0.018309375 0.0509111013046
439 1 -0.021853125 -0.00125 -0.017128125 0.0698876476892
440 1 -0.021853125 -0.00125 -0.015946875 0.091233852548
441 1 -0.021853125 -0.00125 -0.014765625 0.186171540908
442 1 -0.021853125 -0.00125 -0.013584375 0.508950343408
443 1 -0.021853125 -0.00125 -0.012403125 0.656528095261
444 1 -0.021853125 -0.00125 -0.011221875 0.361324541927
445 1 -0.021853125 -0.00125 -0.010040625 0.292342717184
446 1 -0.021853125 -0.00125 -0.008859375 0.361324541927
447 1 -0.021853125 -0.00125 -0.007678125 0.263674497482
448 1 -0.021853125 -0.00125 -0.006496875 0.35574281844
449 1 -0.021853125 -0.00125 -0.005315625 0.580550471812
450 1 -0.021853125 -0.00125 -0.004134375 0.292342717184
451 1 -0.021853125 -0.00125 -0.002953125 0.522376508072
452 1 -0.021853125 -0.00125 -0.001771875 0.332327069371
453 1 -0.021853125 -0.00125 -0.000590625 0.224469737872
454 1 -0.021853125 -0.00125 0.000590625 0.233118486248
455 1 -0.021853125 -0.00125 0.001771875 0.314525490432
456 1 -0.021853125 -0.00125 0.002953125 0.40155560828
457 1 -0.021853125 -0.00125 0.004134375 0.159358746116
458 1 -0.021853125 -0.00125 0.005315625 0.00474645121499
459 1 -0.021853125 -0.00125 0.006496875 0.000375785035587
460 1 -0.021853125 -0.00125 0.007678125 0.149294323427
461 1 -0.021853125 -0.00125 0.008859375 0.165468748191
462 1 -0.021853125 -0.00125 0.010040625 0.13939146749
463 1 -0.021853125 -0.00125 0.011221875 0.114532075754
464 1 -0.021853125 -0.00125 0.012403125 0.247801273335
465 1 -0.021853125 -0.00125 0.013584375 0.263235428641
466 1 -0.021853125 -0.00125 0.014765625 0.000126658700522
467 1 -0.021853125 -0.00125 0.015946875 0.000126658700522
468 1 -0.021853125 -0.00125 0.017128125 0.0138696939255
469 1 -0.021853125 -0.00125 0.018309375 0.0138696939255
470 1 -0.021853125 -0.00125 0.019490625 0.00284458672872
471 1 -0.021853125 -0.00125 0.020671875 0.0
472 1 -0.021853125 -0.00125 0.021853125 0.0
473 1 -0.021853125 -0.00125 0.023034375 0.0
474 1 -0.021853125 -0.00125 0.024215625 0.0
475 1 -0.021853125 -0.00125 0.025396875 0.0
476 1 -0.021853125 -0.00125 0.026578125 0.0
477 1 -0.021853125 -0.00125 0.027759375 0.0
478 1 -0.021853125 -0.00125 0.028940625 0.0
479 1 -0.020671875 -0.00125 -0.030121875 0.0997436404015
480 1 -0.020671875 -0.00125 -0.028940625 0.0328183764962
481 1 -0.020671875 -0.00125 -0.027759375 0.000126657572948
482 1 -0.020671875 -0.00125 -0.026578125 3.14925560351e-13
483 1 -0.020671875 -0.00125 -0.025396875 1.74019667629e-11
484 1 -0.020671875 -0.00125 -0.024215625 0.0
485 1 -0.020671875 -0.00125 -0.023034375 1.74019667629e-11
486 1 -0.020671875 -0.00125 -0.021853125 0.186171540908
487 1 -0.020671875 -0.00125 -0.020671875 0.139391385346
488 1 -0.020671875 -0.00125 -0.019490625 0.00855157475018
489 1 -0.020671875 -0.00125 -0.018309375 0.0138696939255
490 1 -0.020671875 -0.00125 -0.017128125 0.0509111013046
491 1 -0.020671875 -0.00125 -0.015946875 0.0293069007767
492 1 -0.020671875 -0.00125 -0.014765625 0.186171540908
493 1 -0.020671875 -0.00125 -0.013584375 0.551464369363
494 1 -0.020671875 -0.00125 -0.012403125 0.707657282816
495 1 -0.020671875 -0.00125 -0.011221875 0.430635345024
496 1 -0.020671875 -0.00125 -0.010040625 0.196692230435
497 1 -0.020671875 -0.00125 -0.008859375 0.224469737872
498 1 -0.020671875 -0.00125 -0.007678125 0.321195978177
499 1 -0.020671875 -0.00125 -0.006496875 0.292342995029
500 1 -0.020671875 -0.00125 -0.005315625 0.091233852548
501 1 -0.020671875 -0.00125 -0.004134375 0.0347170407724
502 1 -0.020671875 -0.00125 -0.002953125 0.109003711423
503 1 -0.020671875 -0.00125 -0.001771875 0.0243767952624
504 1 -0.020671875 -0.00125 -0.000590625 0.00668182974929
505 1 -0.020671875 -0.00125 0.000590625 0.0443322974297
506 1 -0.020671875 -0.00125 0.001771875 0.0999860491522
507 1 -0.020671875 -0.00125 0.002953125 0.246165113069
508 1 -0.020671875 -0.00125 0.004134375 0.224469737872
509 1 -0.020671875 -0.00125 0.005315625 0.252716464147
510 1 -0.020671875 -0.00125 0.006496875 0.172658474079
511 1 -0.020671875 -0.00125 0.007678125 0.0698876476892
512 1 -0.020671875 -0.00125 0.008859375 0.149294323427
513 1 -0.020671875 -0.00125 0.010040625 0.453010380117
514 1 -0.020671875 -0.00125 0.011221875 0.609625938955
515 1 -0.020671875 -0.00125 0.012403125 0.558176892949
516 1 -0.020671875 -0.00125 0.013584375 0.46531714498
517 1 -0.020671875 -0.00125 0.014765625 0.00154813293271
518 1 -0.020671875 -0.00125 0.015946875 0.0138696939255
519 1 -0.020671875 -0.00125 0.017128125 0.0138696939255
520 1 -0.020671875 -0.00125 0.018309375 0.0138696939255
521 1 -0.020671875 -0.00125 0.019490625 0.00565998798415
522 1 -0.020671875 -0.00125 0.020671875 0.0
523 1 -0.020671875 -0.00125 0.021853125 0.0
524 1 -0.020671875 -0.00125 0.023034375 0.0
525 1 -0.020671875 -0.00125 0.024215625 0.0
526 1 -0.020671875 -0.00125 0.025396875 0.0
527 1 -0.020671875 -0.00125 0.026578125 0.0
528 1 -0.020671875 -0.00125 0.027759375 0.0
529 1 -0.020671875 -0.00125 0.028940625 1.18026294841e-10
530 1 -0.020671875 -0.00125 0.030121875 2.52587523623e-07
531 1 -0.019490625 -0.00125 -0.031303125 0.0439510995162
532 1 -0.019490625 -0.00125 -0.030121875 0.0887137364055
533 1 -0.019490625 -0.00125 -0.028940625 0.238544232212
534 1 -0.019490625 -0.00125 -0.027759375 0.199867928267
535 1 -0.019490625 -0.00125 -0.026578125 0.292342995029
536 1 -0.019490625 -0.00125 -0.025396875 0.172658733081
537 1 -0.019490625 -0.00125 -0.024215625 0.0167442306548
538 1 -0.019490625 -0.00125 -0.023034375 0.0364314683579
539 1 -0.019490625 -0.00125 -0.021853125 0.407146653448
540 1 -0.019490625 -0.00125 -0.020671875 0.39037452881
541 1 -0.019490625 -0.00125 -0.019490625 0.380314899279
542 1 -0.019490625 -0.00125 -0.018309375 0.095575355231
543 1 -0.019490625 -0.00125 -0.017128125 0.0393805017402
544 1 -0.019490625 -0.00125 -0.015946875 0.0393805017402
545 1 -0.019490625 -0.00125 -0.014765625 0.0364315046602
546 1 -0.019490625 -0.00125 -0.013584375 0.156828502511
547 1 -0.019490625 -0.00125 -0.012403125 0.45077309258
548 1 -0.019490625 -0.00125 -0.011221875 0.752744775036
549 1 -0.019490625 -0.00125 -0.010040625 0.247255224964
550 1 -0.019490625 -0.00125 -0.008859375 0.191419592675
551 1 -0.019490625 -0.00125 -0.007678125 0.49999971912
552 1 -0.019490625 -0.00125 -0.006496875 0.0147338225211