ITEM: TIMESTEP
0
ITEM: NUMBER OF ATOMS
3080
ITEM: BOX BOUNDS ss ss ss
-3.7007399999999996e-02 3.7007399999999996e-02
-2.0002499999999999e-03 2.5000000000000004e-07
-3.7007399999999996e-02 3.7007399999999996e-02
ITEM: ATOMS id type x y z c_1
0 1 -0.037209375 -0.00125 -0.000590625 8.19548828049e-05
1 1 -0.036028125 -0.00125 -0.007678125 0.0
2 1 -0.036028125 -0.00125 -0.006496875 0.0
3 1 -0.036028125 -0.00125 -0.005315625 0.0
4 1 -0.036028125 -0.00125 -0.004134375 3.70458005324e-08
5 1 -0.036028125 -0.00125 -0.002953125 0.00021629040297
6 1 -0.036028125 -0.00125 -0.001771875 0.226627684957
7 1 -0.036028125 -0.00125 -0.000590625 0.0155974655734
8 1 -0.036028125 -0.00125 0.000590625 0.232375684815
9 1 -0.036028125 -0.00125 0.001771875 0.226627684957
10 1 -0.036028125 -0.00125 0.002953125 4.42606186288e-05
11 1 -0.036028125 -0.00125 0.004134375 0.0
12 1 -0.036028125 -0.00125 0.005315625 0.0
13 1 -0.036028125 -0.00125 0.006496875 1.22148603069e-15
14 1 -0.036028125 -0.00125 0.007678125 0.00920066229086
15 1 -0.034846875 -0.00125 -0.011221875 0.00920066229086
16 1 -0.034846875 -0.00125 -0.010040625 0.0
17 1 -0.034846875 -0.00125 -0.008859375 0.0
18 1 -0.034846875 -0.00125 -0.007678125 0.0
19 1 -0.034846875 -0.00125 -0.006496875 0.0
20 1 -0.034846875 -0.00125 -0.005315625 1.74019667629e-11
21 1 -0.034846875 -0.00125 -0.004134375 1.74019667629e-11
22 1 -0.034846875 -0.00125 -0.002953125 0.000299132858986
23 1 -0.034846875 -0.00125 -0.001771875 0.00154813293271
24 1 -0.034846875 -0.00125 -0.000590625 0.0267810196531
25 1 -0.034846875 -0.00125 0.000590625 0.252716464147
26 1 -0.034846875 -0.00125 0.001771875 0.091233852548
27 1 -0.034846875 -0.00125 0.002953125 0.010721438861
28 1 -0.034846875 -0.00125 0.004134375 0.0
29 1 -0.034846875 -0.00125 0.005315625 0.0
30 1 -0.034846875 -0.00125 0.006496875 2.79378975481e-22
31 1 -0.034846875 -0.00125 0.007678125 0.057607006066
32 1 -0.034846875 -0.00125 0.008859375 0.432681879228
33 1 -0.034846875 -0.00125 0.010040625 0.120143392669
34 1 -0.034846875 -0.00125 0.011221875 0.00920066229086
35 1 -0.033665625 -0.00125 -0.013584375 3.21135970775e-07
36 1 -0.033665625 -0.00125 -0.012403125 0.232375684815
37 1 -0.033665625 -0.00125 -0.011221875 0.112788508618
38 1 -0.033665625 -0.00125 -0.010040625 0.0
39 1 -0.033665625 -0.00125 -0.008859375 0.0
40 1 -0.033665625 -0.00125 -0.007678125 0.0
41 1 -0.033665625 -0.00125 -0.006496875 0.0
42 1 -0.033665625 -0.00125 -0.005315625 1.74019667629e-11
43 1 -0.033665625 -0.00125 -0.004134375 4.52220221462e-06
44 1 -0.033665625 -0.00125 -0.002953125 0.000126657572948
45 1 -0.033665625 -0.00125 -0.001771875 0.00154813293271
46 1 -0.033665625 -0.00125 -0.000590625 0.0905460868479
47 1 -0.033665625 -0.00125 0.000590625 0.189842124402
48 1 -0.033665625 -0.00125 0.001771875 0.000126657572948
49 1 -0.033665625 -0.00125 0.002953125 1.74019667629e-11
50 1 -0.033665625 -0.00125 0.004134375 0.0
51 1 -0.033665625 -0.00125 0.005315625 0.0
52 1 -0.033665625 -0.00125 0.006496875 0.0
53 1 -0.033665625 -0.00125 0.007678125 0.01386971523
54 1 -0.033665625 -0.00125 0.008859375 0.441823153862
55 1 -0.033665625 -0.00125 0.010040625 0.0381872649833
56 1 -0.033665625 -0.00125 0.011221875 0.00713501987779
57 1 -0.033665625 -0.00125 0.012403125 0.0180058544457
58 1 -0.033665625 -0.00125 0.013584375 0.0
59 1 -0.032484375 -0.00125 -0.018309375 0.0
60 1 -0.032484375 -0.00125 -0.017128125 0.0
61 1 -0.032484375 -0.00125 -0.015946875 0.0
62 1 -0.032484375 -0.00125 -0.014765625 2.66892347814e-17
63 1 -0.032484375 -0.00125 -0.013584375 1.48545584418e-16
64 1 -0.032484375 -0.00125 -0.012403125 0.186171540908
65 1 -0.032484375 -0.00125 -0.011221875 0.107179814045
66 1 -0.032484375 -0.00125 -0.010040625 2.79378975481e-22
67 1 -0.032484375 -0.00125 -0.008859375 2.79378975481e-22
68 1 -0.032484375 -0.00125 -0.007678125 2.79378975481e-22
69 1 -0.032484375 -0.00125 -0.006496875 0.0
70 1 -0.032484375 -0.00125 -0.005315625 0.0
71 1 -0.032484375 -0.00125 -0.004134375 1.74019667629e-11
72 1 -0.032484375 -0.00125 -0.002953125 1.28754471296e-08
73 1 -0.032484375 -0.00125 -0.001771875 0.000891027571502
74 1 -0.032484375 -0.00125 -0.000590625 0.135479759506
75 1 -0.032484375 -0.00125 0.000590625 0.0794708889307
76 1 -0.032484375 -0.00125 0.001771875 7.02293809892e-08
77 1 -0.032484375 -0.00125 0.002953125 7.02293809892e-08
78 1 -0.032484375 -0.00125 0.004134375 0.0
79 1 -0.032484375 -0.00125 0.005315625 0.0
80 1 -0.032484375 -0.00125 0.006496875 9.25291560019e-26
81 1 -0.032484375 -0.00125 0.007678125 0.258189948267
82 1 -0.032484375 -0.00125 0.008859375 0.199867928267
83 1 -0.032484375 -0.00125 0.010040625 3.14925560351e-13
84 1 -0.032484375 -0.00125 0.011221875 4.52220221462e-06
85 1 -0.032484375 -0.00125 0.012403125 3.07877004318e-05
86 1 -0.032484375 -0.00125 0.013584375 0.0
87 1 -0.032484375 -0.00125 0.014765625 0.00337606889603
88 1 -0.032484375 -0.00125 0.015946875 0.0565297446453
89 1 -0.032484375 -0.00125 0.017128125 0.0753047253833
90 1 -0.032484375 -0.00125 0.018309375 0.0
91 1 -0.031303125 -0.00125 -0.019490625 0.0
92 1 -0.031303125 -0.00125 -0.018309375 0.0
93 1 -0.031303125 -0.00125 -0.017128125 0.0
94 1 -0.031303125 -0.00125 -0.015946875 0.0
95 1 -0.031303125 -0.00125 -0.014765625 0.0
96 1 -0.031303125 -0.00125 -0.013584375 0.0
97 1 -0.031303125 -0.00125 -0.012403125 0.133535038668
98 1 -0.031303125 -0.00125 -0.011221875 0.224469737872
99 1 -0.031303125 -0.00125 -0.010040625 0.0138696939255
100 1 -0.031303125 -0.00125 -0.008859375 4.52220221462e-06
101 1 -0.031303125 -0.00125 -0.007678125 0.0
102 1 -0.031303125 -0.00125 -0.006496875 0.0
103 1 -0.031303125 -0.00125 -0.005315625 0.0
104 1 -0.031303125 -0.00125 -0.004134375 1.74019667629e-11
105 1 -0.031303125 -0.00125 -0.002953125 0.00474644221021
106 1 -0.031303125 -0.00125 -0.001771875 0.0698876476892
107 1 -0.031303125 -0.00125 -0.000590625 0.091233852548
108 1 -0.031303125 -0.00125 0.000590625 0.00566000214566
109 1 -0.031303125 -0.00125 0.001771875 0.00249557400626
110 1 -0.031303125 -0.00125 0.002953125 0.000299131636816
111 1 -0.031303125 -0.00125 0.004134375 1.74019667629e-11
112 1 -0.031303125 -0.00125 0.005315625 0.0
113 1 -0.031303125 -0.00125 0.006496875 1.58378774223e-05
114 1 -0.031303125 -0.00125 0.007678125 0.310081568404
115 1 -0.031303125 -0.00125 0.008859375 0.091233852548
116 1 -0.031303125 -0.00125 0.010040625 0.0
117 1 -0.031303125 -0.00125 0.011221875 4.52220221462e-06
118 1 -0.031303125 -0.00125 0.012403125 4.52220221462e-06
119 1 -0.031303125 -0.00125 0.013584375 0.0
120 1 -0.031303125 -0.00125 0.014765625 1.22156214432e-15
121 1 -0.031303125 -0.00125 0.015946875 0.0175125891118
122 1 -0.031303125 -0.00125 0.017128125 4.52220221462e-06
123 1 -0.031303125 -0.00125 0.018309375 0.0
124 1 -0.031303125 -0.00125 0.019490625 0.0
125 1 -0.030121875 -0.00125 -0.020671875 0.0
126 1 -0.030121875 -0.00125 -0.019490625 0.0
127 1 -0.030121875 -0.00125 -0.018309375 0.0
128 1 -0.030121875 -0.00125 -0.017128125 0.0
129 1 -0.030121875 -0.00125 -0.015946875 0.0
130 1 -0.030121875 -0.00125 -0.014765625 0.0
131 1 -0.030121875 -0.00125 -0.013584375 2.79378975481e-22
132 1 -0.030121875 -0.00125 -0.012403125 0.186171540908
133 1 -0.030121875 -0.00125 -0.011221875 0.419449528188
134 1 -0.030121875 -0.00125 -0.010040625 0.0999860863438
135 1 -0.030121875 -0.00125 -0.008859375 0.000891017573599
136 1 -0.030121875 -0.00125 -0.007678125 1.74019667629e-11
137 1 -0.030121875 -0.00125 -0.006496875 1.28754471296e-08
138 1 -0.030121875 -0.00125 -0.005315625 0.0
139 1 -0.030121875 -0.00125 -0.004134375 4.52220221462e-06
140 1 -0.030121875 -0.00125 -0.002953125 0.00154812961495
141 1 -0.030121875 -0.00125 -0.001771875 0.01386971523
142 1 -0.030121875 -0.00125 -0.000590625 0.00474644221021
143 1 -0.030121875 -0.00125 0.000590625 2.79378975481e-22
144 1 -0.030121875 -0.00125 0.001771875 1.74019667629e-11
145 1 -0.030121875 -0.00125 0.002953125 1.74019667629e-11
146 1 -0.030121875 -0.00125 0.004134375 0.0
147 1 -0.030121875 -0.00125 0.005315625 0.0
148 1 -0.030121875 -0.00125 0.006496875 0.0267810196531
149 1 -0.030121875 -0.00125 0.007678125 0.230952152116
150 1 -0.030121875 -0.00125 0.008859375 0.0698876476892
151 1 -0.030121875 -0.00125 0.010040625 0.0
152 1 -0.030121875 -0.00125 0.011221875 0.0
153 1 -0.030121875 -0.00125 0.012403125 1.74019667629e-11
154 1 -0.030121875 -0.00125 0.013584375 0.0
155 1 -0.030121875 -0.00125 0.014765625 0.0
156 1 -0.030121875 -0.00125 0.015946875 0.0
157 1 -0.030121875 -0.00125 0.017128125 1.74019667629e-11
158 1 -0.030121875 -0.00125 0.018309375 0.0
159 1 -0.030121875 -0.00125 0.019490625 0.0
160 1 -0.030121875 -0.00125 0.020671875 0.0
161 1 -0.028940625 -0.00125 -0.021853125 0.0
162 1 -0.028940625 -0.00125 -0.020671875 0.0
163 1 -0.028940625 -0.00125 -0.019490625 0.0
164 1 -0.028940625 -0.00125 -0.018309375 0.0
165 1 -0.028940625 -0.00125 -0.017128125 0.0
166 1 -0.028940625 -0.00125 -0.015946875 0.0
167 1 -0.028940625 -0.00125 -0.014765625 0.0
168 1 -0.028940625 -0.00125 -0.013584375 1.74019667629e-11
169 1 -0.028940625 -0.00125 -0.012403125 0.252716464147
170 1 -0.028940625 -0.00125 -0.011221875 0.332326556717
171 1 -0.028940625 -0.00125 -0.010040625 0.0912339065983
172 1 -0.028940625 -0.00125 -0.008859375 0.0293069224194
173 1 -0.028940625 -0.00125 -0.007678125 0.00154813293271
174 1 -0.028940625 -0.00125 -0.006496875 0.00037578590857
175 1 -0.028940625 -0.00125 -0.005315625 1.74019667629e-11
176 1 -0.028940625 -0.00125 -0.004134375 0.0
177 1 -0.028940625 -0.00125 -0.002953125 0.0
178 1 -0.028940625 -0.00125 -0.001771875 0.0
179 1 -0.028940625 -0.00125 -0.000590625 4.52220221462e-06
180 1 -0.028940625 -0.00125 0.000590625 2.79378975481e-22
181 1 -0.028940625 -0.00125 0.001771875 0.0
182 1 -0.028940625 -0.00125 0.002953125 0.0
183 1 -0.028940625 -0.00125 0.004134375 0.0
184 1 -0.028940625 -0.00125 0.005315625 0.0
185 1 -0.028940625 -0.00125 0.006496875 0.0267810093374
186 1 -0.028940625 -0.00125 0.007678125 0.091233852548
187 1 -0.028940625 -0.00125 0.008859375 0.000891017573599
188 1 -0.028940625 -0.00125 0.010040625 0.0
189 1 -0.028940625 -0.00125 0.011221875 0.0
190 1 -0.028940625 -0.00125 0.012403125 0.0
191 1 -0.028940625 -0.00125 0.013584375 0.0
192 1 -0.028940625 -0.00125 0.014765625 0.0
193 1 -0.028940625 -0.00125 0.015946875 0.0
194 1 -0.028940625 -0.00125 0.017128125 0.0
195 1 -0.028940625 -0.00125 0.018309375 0.0
196 1 -0.028940625 -0.00125 0.019490625 0.0
197 1 -0.028940625 -0.00125 0.020671875 0.000245540111831
198 1 -0.028940625 -0.00125 0.021853125 0.298081407311
199 1 -0.027759375 -0.00125 -0.024215625 0.0
200 1 -0.027759375 -0.00125 -0.023034375 0.0
201 1 -0.027759375 -0.00125 -0.021853125 0.0
202 1 -0.027759375 -0.00125 -0.020671875 0.0
203 1 -0.027759375 -0.00125 -0.019490625 0.0
204 1 -0.027759375 -0.00125 -0.018309375 0.0
205 1 -0.027759375 -0.00125 -0.017128125 0.0
206 1 -0.027759375 -0.00125 -0.015946875 0.0
207 1 -0.027759375 -0.00125 -0.014765625 0.0
208 1 -0.027759375 -0.00125 -0.013584375 1.77731074088e-06
209 1 -0.027759375 -0.00125 -0.012403125 0.123928325831
210 1 -0.027759375 -0.00125 -0.011221875 0.529089062167
211 1 -0.027759375 -0.00125 -0.010040625 0.263674497482
212 1 -0.027759375 -0.00125 -0.008859375 0.0509111013046
213 1 -0.027759375 -0.00125 -0.007678125 0.00154813293271
214 1 -0.027759375 -0.00125 -0.006496875 3.14925560351e-13
215 1 -0.027759375 -0.00125 -0.005315625 0.0
216 1 -0.027759375 -0.00125 -0.004134375 0.0
217 1 -0.027759375 -0.00125 -0.002953125 0.0
218 1 -0.027759375 -0.00125 -0.001771875 0.0
219 1 -0.027759375 -0.00125 -0.000590625 1.74019667629e-11
220 1 -0.027759375 -0.00125 0.000590625 3.14925560351e-13
221 1 -0.027759375 -0.00125 0.001771875 0.000126658700522
222 1 -0.027759375 -0.00125 0.002953125 4.42606186288e-05
223 1 -0.027759375 -0.00125 0.004134375 1.22156214432e-15
224 1 -0.027759375 -0.00125 0.005315625 0.0
225 1 -0.027759375 -0.00125 0.006496875 0.00228020850123
226 1 -0.027759375 -0.00125 0.007678125 0.0912339065983
227 1 -0.027759375 -0.00125 0.008859375 0.000891017573599
228 1 -0.027759375 -0.00125 0.010040625 4.42606186288e-05
229 1 -0.027759375 -0.00125 0.011221875 1.74019667629e-11
230 1 -0.027759375 -0.00125 0.012403125 4.52220221462e-06
231 1 -0.027759375 -0.00125 0.013584375 0.0
232 1 -0.027759375 -0.00125 0.014765625 0.0
233 1 -0.027759375 -0.00125 0.015946875 0.0
234 1 -0.027759375 -0.00125 0.017128125 0.0
235 1 -0.027759375 -0.00125 0.018309375 0.0
236 1 -0.027759375 -0.00125 0.019490625 0.0
237 1 -0.027759375 -0.00125 0.020671875 0.091233852548
238 1 -0.027759375 -0.00125 0.021853125 0.36658041478
239 1 -0.027759375 -0.00125 0.023034375 0.00106278235535
240 1 -0.027759375 -0.00125 0.024215625 0.00920066229086
241 1 -0.026578125 -0.00125 -0.026578125 0.0
242 1 -0.026578125 -0.00125 -0.025396875 0.0
243 1 -0.026578125 -0.00125 -0.024215625 0.0
244 1 -0.026578125 -0.00125 -0.023034375 0.0
245 1 -0.026578125 -0.00125 -0.021853125 0.0
246 1 -0.026578125 -0.00125 -0.020671875 0.0
247 1 -0.026578125 -0.00125 -0.019490625 0.0
248 1 -0.026578125 -0.00125 -0.018309375 0.0
249 1 -0.026578125 -0.00125 -0.017128125 0.0
250 1 -0.026578125 -0.00125 -0.015946875 0.0
251 1 -0.026578125 -0.00125 -0.014765625 0.0
252 1 -0.026578125 -0.00125 -0.013584375 0.0
253 1 -0.026578125 -0.00125 -0.012403125 0.00118682874801
254 1 -0.026578125 -0.00125 -0.011221875 0.297879916303
255 1 -0.026578125 -0.00125 -0.010040625 0.479861590289
256 1 -0.026578125 -0.00125 -0.008859375 0.0335972902817
257 1 -0.026578125 -0.00125 -0.007678125 1.74019667629e-11
258 1 -0.026578125 -0.00125 -0.006496875 1.74019667629e-11
259 1 -0.026578125 -0.00125 -0.005315625 1.74019667629e-11
260 1 -0.026578125 -0.00125 -0.004134375 1.77729209249e-06
261 1 -0.026578125 -0.00125 -0.002953125 0.0267810506
262 1 -0.026578125 -0.00125 -0.001771875 0.0335972902817
263 1 -0.026578125 -0.00125 -0.000590625 0.076223040211
264 1 -0.026578125 -0.00125 0.000590625 0.0794709403021
265 1 -0.026578125 -0.00125 0.001771875 0.134506394838
266 1 -0.026578125 -0.00125 0.002953125 0.252716738676
267 1 -0.026578125 -0.00125 0.004134375 0.136454910525
268 1 -0.026578125 -0.00125 0.005315625 0.154307310461
269 1 -0.026578125 -0.00125 0.006496875 0.145312715691
270 1 -0.026578125 -0.00125 0.007678125 0.17575893658
271 1 -0.026578125 -0.00125 0.008859375 0.136454951369
272 1 -0.026578125 -0.00125 0.010040625 0.0683382082321
273 1 -0.026578125 -0.00125 0.011221875 0.0138696939255
274 1 -0.026578125 -0.00125 0.012403125 0.000299131636816
275 1 -0.026578125 -0.00125 0.013584375 2.79360826313e-22
276 1 -0.026578125 -0.00125 0.014765625 0.0
277 1 -0.026578125 -0.00125 0.015946875 0.0
278 1 -0.026578125 -0.00125 0.017128125 0.0
279 1 -0.026578125 -0.00125 0.018309375 0.0
280 1 -0.026578125 -0.00125 0.019490625 1.92522499223e-60
281 1 -0.026578125 -0.00125 0.020671875 0.131597898254
282 1 -0.026578125 -0.00125 0.021853125 0.175759153192
283 1 -0.026578125 -0.00125 0.023034375 1.22148603069e-15
284 1 -0.026578125 -0.00125 0.024215625 2.79378975481e-22
285 1 -0.026578125 -0.00125 0.025396875 1.53365800589e-05
286 1 -0.026578125 -0.00125 0.026578125 0.0
287 1 -0.025396875 -0.00125 -0.026578125 0.0
288 1 -0.025396875 -0.00125 -0.025396875 0.0
289 1 -0.025396875 -0.00125 -0.024215625 0.0
290 1 -0.025396875 -0.00125 -0.023034375 0.0
291 1 -0.025396875 -0.00125 -0.021853125 0.0
292 1 -0.025396875 -0.00125 -0.020671875 0.0
293 1 -0.025396875 -0.00125 -0.019490625 1.28754471296e-08
294 1 -0.025396875 -0.00125 -0.018309375 1.74019667629e-11
295 1 -0.025396875 -0.00125 -0.017128125 0.0
296 1 -0.025396875 -0.00125 -0.015946875 0.0
297 1 -0.025396875 -0.00125 -0.014765625 1.74019667629e-11
298 1 -0.025396875 -0.00125 -0.013584375 0.0
299 1 -0.025396875 -0.00125 -0.012403125 6.01557630165e-07
300 1 -0.025396875 -0.00125 -0.011221875 0.14929428164
301 1 -0.025396875 -0.00125 -0.010040625 0.885467904821
302 1 -0.025396875 -0.00125 -0.008859375 0.14929428164
303 1 -0.025396875 -0.00125 -0.007678125 4.52220221462e-06
304 1 -0.025396875 -0.00125 -0.006496875 0.0622852495443
305 1 -0.025396875 -0.00125 -0.005315625 0.0622852805866
306 1 -0.025396875 -0.00125 -0.004134375 0.149294323427
307 1 -0.025396875 -0.00125 -0.002953125 0.224470234239
308 1 -0.025396875 -0.00125 -0.001771875 0.123928325831
309 1 -0.025396875 -0.00125 -0.000590625 0.01386971523
310 1 -0.025396875 -0.00125 0.000590625 5.56345936508e-05
311 1 -0.025396875 -0.00125 0.001771875 0.0509111013046
312 1 -0.025396875 -0.00125 0.002953125 0.0622852495443
313 1 -0.025396875 -0.00125 0.004134375 1.74019667629e-11
314 1 -0.025396875 -0.00125 0.005315625 0.0
315 1 -0.025396875 -0.00125 0.006496875 2.79378975481e-22
316 1 -0.025396875 -0.00125 0.007678125 4.52227625942e-06
317 1 -0.025396875 -0.00125 0.008859375 0.000126657572948
318 1 -0.025396875 -0.00125 0.010040625 4.52220221462e-06
319 1 -0.025396875 -0.00125 0.011221875 1.74019667629e-11
320 1 -0.025396875 -0.00125 0.012403125 0.0
321 1 -0.025396875 -0.00125 0.013584375 0.0
322 1 -0.025396875 -0.00125 0.014765625 0.0
323 1 -0.025396875 -0.00125 0.015946875 0.0
324 1 -0.025396875 -0.00125 0.017128125 0.0
325 1 -0.025396875 -0.00125 0.018309375 1.74019667629e-11
326 1 -0.025396875 -0.00125 0.019490625 0.0
327 1 -0.025396875 -0.00125 0.020671875 0.14929428164
328 1 -0.025396875 -0.00125 0.021853125 0.186171540908
329 1 -0.025396875 -0.00125 0.023034375 6.01557630165e-07
330 1 -0.025396875 -0.00125 0.024215625 0.000891023127979
331 1 -0.025396875 -0.00125 0.025396875 0.00154813293271
332 1 -0.025396875 -0.00125 0.026578125 0.0
333 1 -0.024215625 -0.00125 -0.027759375 0.0
334 1 -0.024215625 -0.00125 -0.026578125 0.0
335 1 -0.024215625 -0.00125 -0.025396875 0.0
336 1 -0.024215625 -0.00125 -0.024215625 0.0
337 1 -0.024215625 -0.00125 -0.023034375 0.0
338 1 -0.024215625 -0.00125 -0.021853125 1.74019667629e-11
339 1 -0.024215625 -0.00125 -0.020671875 0.000126658700522
340 1 -0.024215625 -0.00125 -0.019490625 0.000535662176186
341 1 -0.024215625 -0.00125 -0.018309375 0.000126658700522
342 1 -0.024215625 -0.00125 -0.017128125 6.01557630165e-07
343 1 -0.024215625 -0.00125 -0.015946875 0.000126658700522
344 1 -0.024215625 -0.00125 -0.014765625 0.000126658700522
345 1 -0.024215625 -0.00125 -0.013584375 2.79378975481e-22
346 1 -0.024215625 -0.00125 -0.012403125 0.0
347 1 -0.024215625 -0.00125 -0.011221875 0.000126658700522
348 1 -0.024215625 -0.00125 -0.010040625 0.459722771872
349 1 -0.024215625 -0.00125 -0.008859375 0.332327069371
350 1 -0.024215625 -0.00125 -0.007678125 0.000126657572948
351 1 -0.024215625 -0.00125 -0.006496875 0.066041103006
352 1 -0.024215625 -0.00125 -0.005315625 0.123928325831
353 1 -0.024215625 -0.00125 -0.004134375 0.133535038668
354 1 -0.024215625 -0.00125 -0.002953125 0.0698876476892
355 1 -0.024215625 -0.00125 -0.001771875 0.00668182974929
356 1 -0.024215625 -0.00125 -0.000590625 0.0138696939255
357 1 -0.024215625 -0.00125 0.000590625 1.58379826604e-05
358 1 -0.024215625 -0.00125 0.001771875 0.0243767756543
359 1 -0.024215625 -0.00125 0.002953125 0.0199375166154
360 1 -0.024215625 -0.00125 0.004134375 4.52220221462e-06
361 1 -0.024215625 -0.00125 0.005315625 1.74019667629e-11
362 1 -0.024215625 -0.00125 0.006496875 0.0098718633607
363 1 -0.024215625 -0.00125 0.007678125 0.00154813293271
364 1 -0.024215625 -0.00125 0.008859375 1.74019667629e-11
365 1 -0.024215625 -0.00125 0.010040625 0.0
366 1 -0.024215625 -0.00125 0.011221875 0.0
367 1 -0.024215625 -0.00125 0.012403125 0.0
368 1 -0.024215625 -0.00125 0.013584375 0.0
369 1 -0.024215625 -0.00125 0.014765625 0.0
370 1 -0.024215625 -0.00125 0.015946875 0.0
371 1 -0.024215625 -0.00125 0.017128125 4.52220221462e-06
372 1 -0.024215625 -0.00125 0.018309375 1.74019667629e-11
373 1 -0.024215625 -0.00125 0.019490625 2.79378975481e-22
374 1 -0.024215625 -0.00125 0.020671875 0.252716464147
375 1 -0.024215625 -0.00125 0.021853125 0.14929428164
376 1 -0.024215625 -0.00125 0.023034375 6.01557630165e-07
377 1 -0.024215625 -0.00125 0.024215625 0.00154813293271
378 1 -0.024215625 -0.00125 0.025396875 0.00474645121499
379 1 -0.024215625 -0.00125 0.026578125 1.28754471296e-08
380 1 -0.024215625 -0.00125 0.027759375 0.0
381 1 -0.023034375 -0.00125 -0.027759375 0.00106278235535
382 1 -0.023034375 -0.00125 -0.026578125 0.0
383 1 -0.023034375 -0.00125 -0.025396875 0.0
384 1 -0.023034375 -0.00125 -0.024215625 0.0
385 1 -0.023034375 -0.00125 -0.023034375 1.74019667629e-11
386 1 -0.023034375 -0.00125 -0.021853125 0.0
387 1 -0.023034375 -0.00125 -0.020671875 0.000126658700522
388 1 -0.023034375 -0.00125 -0.019490625 0.0138696939255
389 1 -0.023034375 -0.00125 -0.018309375 0.00474645121499
390 1 -0.023034375 -0.00125 -0.017128125 0.00474645121499
391 1 -0.023034375 -0.00125 -0.015946875 0.091233852548
392 1 -0.023034375 -0.00125 -0.014765625 0.0138696939255
393 1 -0.023034375 -0.00125 -0.013584375 0.000126658700522
394 1 -0.023034375 -0.00125 -0.012403125 1.74019667629e-11
395 1 -0.023034375 -0.00125 -0.011221875 1.74019667629e-11
396 1 -0.023034375 -0.00125 -0.010040625 0.252716464147
397 1 -0.023034375 -0.00125 -0.008859375 0.470910984646
398 1 -0.023034375 -0.00125 -0.007678125 0.01386971523
399 1 -0.023034375 -0.00125 -0.006496875 0.00100194784546
400 1 -0.023034375 -0.00125 -0.005315625 0.0138696939255
401 1 -0.023034375 -0.00125 -0.004134375 0.00668182974929
402 1 -0.023034375 -0.00125 -0.002953125 0.0622852495443
403 1 -0.023034375 -0.00125 -0.001771875 0.0381872278205
404 1 -0.023034375 -0.00125 -0.000590625 0.0443322974297
405 1 -0.023034375 -0.00125 0.000590625 0.0138696939255
406 1 -0.023034375 -0.00125 0.001771875 0.00668182974929
407 1 -0.023034375 -0.00125 0.002953125 0.0175125972543
408 1 -0.023034375 -0.00125 0.004134375 0.0138696939255
409 1 -0.023034375 -0.00125 0.005315625 0.0175125972543
410 1 -0.023034375 -0.00125 0.006496875 0.0207856853608
411 1 -0.023034375 -0.00125 0.007678125 0.0243767756543
412 1 -0.023034375 -0.00125 0.008859375 0.0138696939255
413 1 -0.023034375 -0.00125 0.010040625 0.00154812961495
414 1 -0.023034375 -0.00125 0.011221875 1.74019667629e-11
415 1 -0.023034375 -0.00125 0.012403125 0.0
416 1 -0.023034375 -0.00125 0.013584375 0.0
417 1 -0.023034375 -0.00125 0.014765625 0.0
418 1 -0.023034375 -0.00125 0.015946875 1.74019667629e-11
419 1 -0.023034375 -0.00125 0.017128125 1.74019667629e-11
420 1 -0.023034375 -0.00125 0.018309375 4.52220221462e-06
421 1 -0.023034375 -0.00125 0.019490625 0.000126657572948
422 1 -0.023034375 -0.00125 0.020671875 0.511187741896
423 1 -0.023034375 -0.00125 0.021853125 0.0443322841124
424 1 -0.023034375 -0.00125 0.023034375 0.000126658700522
425 1 -0.023034375 -0.00125 0.024215625 0.00474645121499
426 1 -0.023034375 -0.00125 0.025396875 0.0138696939255
427 1 -0.023034375 -0.00125 0.026578125 0.00037578707255
428 1 -0.023034375 -0.00125 0.027759375 0.0075399670332
429 1 -0.021853125 -0.00125 -0.028940625 0.00466864259094
430 1 -0.021853125 -0.00125 -0.027759375 1.18026294841e-10
431 1 -0.021853125 -0.00125 -0.026578125 0.0
432 1 -0.021853125 -0.00125 -0.025396875 0.0
433 1 -0.021853125 -0.00125 -0.024215625 0.000126658700522
434 1 -0.021853125 -0.00125 -0.023034375 0.0
435 1 -0.021853125 -0.00125 -0.021853125 0.0
436 1 -0.021853125 -0.00125 -0.020671875 0.000126658700522
437 1 -0.021853125 -0.00125 -0.019490625 0.0138696939255
438 1 -0.021853125 -0.00125 -0.018309375 0.00154813293271
439 1 -0.021853125 -0.00125 -0.017128125 0.00154813293271
440 1 -0.021853125 -0.00125 -0.015946875 0.091233852548
441 1 -0.021853125 -0.00125 -0.014765625 0.14929428164
442 1 -0.021853125 -0.00125 -0.013584375 0.0156289676205
443 1 -0.021853125 -0.00125 -0.012403125 0.0
444 1 -0.021853125 -0.00125 -0.011221875 0.000126657572948
445 1 -0.021853125 -0.00125 -0.010040625 0.314525490432
446 1 -0.021853125 -0.00125 -0.008859375 0.591734853249
447 1 -0.021853125 -0.00125 -0.007678125 0.0293069007767
448 1 -0.021853125 -0.00125 -0.006496875 0.000741931199387
449 1 -0.021853125 -0.00125 -0.005315625 0.0138696939255
450 1 -0.021853125 -0.00125 -0.004134375 0.00474644221021
451 1 -0.021853125 -0.00125 -0.002953125 0.01386971523
452 1 -0.021853125 -0.00125 -0.001771875 0.01386971523
453 1 -0.021853125 -0.00125 -0.000590625 0.000299131636816
454 1 -0.021853125 -0.00125 0.000590625 0.00668184101894
455 1 -0.021853125 -0.00125 0.001771875 0.00154812961495
456 1 -0.021853125 -0.00125 0.002953125 0.0175125972543
457 1 -0.021853125 -0.00125 0.004134375 0.0138696939255
458 1 -0.021853125 -0.00125 0.005315625 0.0138696939255
459 1 -0.021853125 -0.00125 0.006496875 0.000535660654302
460 1 -0.021853125 -0.00125 0.007678125 0.00154812961495
461 1 -0.021853125 -0.00125 0.008859375 0.00668182974929
462 1 -0.021853125 -0.00125 0.010040625 0.00668184101894
463 1 -0.021853125 -0.00125 0.011221875 1.74019667629e-11
464 1 -0.021853125 -0.00125 0.012403125 0.0
465 1 -0.021853125 -0.00125 0.013584375 0.0
466 1 -0.021853125 -0.00125 0.014765625 0.0
467 1 -0.021853125 -0.00125 0.015946875 0.0
468 1 -0.021853125 -0.00125 0.017128125 1.74019667629e-11
469 1 -0.021853125 -0.00125 0.018309375 4.52220221462e-06
470 1 -0.021853125 -0.00125 0.019490625 0.0138697081285
471 1 -0.021853125 -0.00125 0.020671875 0.5
472 1 -0.021853125 -0.00125 0.021853125 0.00474645121499
473 1 -0.021853125 -0.00125 0.023034375 0.000126658700522
474 1 -0.021853125 -0.00125 0.024215625 0.0138696939255
475 1 -0.021853125 -0.00125 0.025396875 0.01386971523
476 1 -0.021853125 -0.00125 0.026578125 0.000535662176186
477 1 -0.021853125 -0.00125 0.027759375 0.0982655924987
478 1 -0.021853125 -0.00125 0.028940625 0.0459959987098
479 1 -0.020671875 -0.00125 -0.030121875 0.0
480 1 -0.020671875 -0.00125 -0.028940625 1.18574745776e-05
481 1 -0.020671875 -0.00125 -0.027759375 1.74019667629e-11
482 1 -0.020671875 -0.00125 -0.026578125 0.0
483 1 -0.020671875 -0.00125 -0.025396875 0.000126658700522
484 1 -0.020671875 -0.00125 -0.024215625 0.000126658700522
485 1 -0.020671875 -0.00125 -0.023034375 0.0
486 1 -0.020671875 -0.00125 -0.021853125 0.0
487 1 -0.020671875 -0.00125 -0.020671875 0.000126658700522
488 1 -0.020671875 -0.00125 -0.019490625 0.0364315046602
489 1 -0.020671875 -0.00125 -0.018309375 0.091233852548
490 1 -0.020671875 -0.00125 -0.017128125 0.0138696939255
491 1 -0.020671875 -0.00125 -0.015946875 0.00474645121499
492 1 -0.020671875 -0.00125 -0.014765625 0.114532075754
493 1 -0.020671875 -0.00125 -0.013584375 0.0475687797882
494 1 -0.020671875 -0.00125 -0.012403125 0.000126658700522
495 1 -0.020671875 -0.00125 -0.011221875 0.00668184101894
496 1 -0.020671875 -0.00125 -0.010040625 0.0622852495443
497 1 -0.020671875 -0.00125 -0.008859375 0.591734291704
498 1 -0.020671875 -0.00125 -0.007678125 0.332326556717
499 1 -0.020671875 -0.00125 -0.006496875 0.000891017573599
500 1 -0.020671875 -0.00125 -0.005315625 0.000126658700522
501 1 -0.020671875 -0.00125 -0.004134375 4.52220221462e-06
502 1 -0.020671875 -0.00125 -0.002953125 0.00668182974929
503 1 -0.020671875 -0.00125 -0.001771875 0.01386971523
504 1 -0.020671875 -0.00125 -0.000590625 0.0243767952624
505 1 -0.020671875 -0.00125 0.000590625 0.0107214449368
506 1 -0.020671875 -0.00125 0.001771875 0.0293069007767
507 1 -0.020671875 -0.00125 0.002953125 0.0698876476892
508 1 -0.020671875 -0.00125 0.004134375 0.0293069224194
509 1 -0.020671875 -0.00125 0.005315625 0.109003711423
510 1 -0.020671875 -0.00125 0.006496875 0.00284458163855
511 1 -0.020671875 -0.00125 0.007678125 0.000891023127979
512 1 -0.020671875 -0.00125 0.008859375 1.74019667629e-11
513 1 -0.020671875 -0.00125 0.010040625 0.000891017573599
514 1 -0.020671875 -0.00125 0.011221875 3.70458005324e-08
515 1 -0.020671875 -0.00125 0.012403125 1.74019667629e-11
516 1 -0.020671875 -0.00125 0.013584375 2.79378975481e-22
517 1 -0.020671875 -0.00125 0.014765625 0.0
518 1 -0.020671875 -0.00125 0.015946875 0.0
519 1 -0.020671875 -0.00125 0.017128125 0.0
520 1 -0.020671875 -0.00125 0.018309375 4.52220221462e-06
521 1 -0.020671875 -0.00125 0.019490625 0.0364315046602
522 1 -0.020671875 -0.00125 0.020671875 0.292342717184
523 1 -0.020671875 -0.00125 0.021853125 0.00474645121499
524 1 -0.020671875 -0.00125 0.023034375 0.00474645121499
525 1 -0.020671875 -0.00125 0.024215625 0.0138696939255
526 1 -0.020671875 -0.00125 0.025396875 0.000126658700522
527 1 -0.020671875 -0.00125 0.026578125 3.14925560351e-13
528 1 -0.020671875 -0.00125 0.027759375 0.0
529 1 -0.020671875 -0.00125 0.028940625 0.000245540111831
530 1 -0.020671875 -0.00125 0.030121875 8.01171833736e-10
531 1 -0.019490625 -0.00125 -0.031303125 8.50218305249e-07
532 1 -0.019490625 -0.00125 -0.030121875 1.74014005978e-11
533 1 -0.019490625 -0.00125 -0.028940625 0.00734856622555
534 1 -0.019490625 -0.00125 -0.027759375 0.0187026608024
535 1 -0.019490625 -0.00125 -0.026578125 2.2124904426e-07
536 1 -0.019490625 -0.00125 -0.025396875 0.00228022814162
537 1 -0.019490625 -0.00125 -0.024215625 0.000126658700522
538 1 -0.019490625 -0.00125 -0.023034375 0.0
539 1 -0.019490625 -0.00125 -0.021853125 0.0
540 1 -0.019490625 -0.00125 -0.020671875 1.28754471296e-08
541 1 -0.019490625 -0.00125 -0.019490625 0.00175558736526
542 1 -0.019490625 -0.00125 -0.018309375 0.0762228717045
543 1 -0.019490625 -0.00125 -0.017128125 0.196692230435
544 1 -0.019490625 -0.00125 -0.015946875 0.0529663073376
545 1 -0.019490625 -0.00125 -0.014765625 0.0187026608024
546 1 -0.019490625 -0.00125 -0.013584375 0.0519340893589
547 1 -0.019490625 -0.00125 -0.012403125 0.128706688471
548 1 -0.019490625 -0.00125 -0.011221875 0.131597898254
549 1 -0.019490625 -0.00125 -0.010040625 0.387020823644
550 1 -0.019490625 -0.00125 -0.008859375 0.5
551 1 -0.019490625 -0.00125 -0.007678125 0.67657881345
552 1 -0.019490625 -0.00125 -0.006496875 0.166491807346
553 1 -0.019490625 -0.00125 -0.005315625 0.154307352577
554 1 -0.019490625 -0.00125 -0.004134375 0.136454951369
555 1 -0.019490625 -0.00125 -0.002953125 0.191419372554
556 1 -0.019490625 -0.00125 -0.001771875 0.210512024955
557 1 -0.019490625 -0.00125 -0.000590625 0.21908624719
558 1 -0.019490625 -0.00125 0.000590625 0.326759914968
559 1 -0.019490625 -0.00125 0.001771875 0.180950835502
560 1 -0.019490625 -0.00125 0.002953125 0.131597898254