ITEM: TIMESTEP
0
ITEM: NUMBER OF ATOMS
3080
ITEM: BOX BOUNDS ss ss ss
-3.7007399999999996e-02 3.7007399999999996e-02
-2.0002499999999999e-03 2.5000000000000004e-07
-3.7007399999999996e-02 3.7007399999999996e-02
ITEM: ATOMS id type x y z c_1
0 1 -0.037209375 -0.00125 -0.000590625 1.0
1 1 -0.036028125 -0.00125 -0.007678125 0.00920066229086
2 1 -0.036028125 -0.00125 -0.006496875 0.0
3 1 -0.036028125 -0.00125 -0.005315625 0.0
4 1 -0.036028125 -0.00125 -0.004134375 0.00021629040297
5 1 -0.036028125 -0.00125 -0.002953125 0.17162733092
6 1 -0.036028125 -0.00125 -0.001771875 0.654297525186
7 1 -0.036028125 -0.00125 -0.000590625 0.0418564289367
8 1 -0.036028125 -0.00125 0.000590625 3.28052817822e-06
9 1 -0.036028125 -0.00125 0.001771875 0.00207820714601
10 1 -0.036028125 -0.00125 0.002953125 1.74019667629e-11
11 1 -0.036028125 -0.00125 0.004134375 0.0
12 1 -0.036028125 -0.00125 0.005315625 0.0
13 1 -0.036028125 -0.00125 0.006496875 0.000104426574864
14 1 -0.036028125 -0.00125 0.007678125 0.0700209838113
15 1 -0.034846875 -0.00125 -0.011221875 0.0
16 1 -0.034846875 -0.00125 -0.010040625 0.226627684957
17 1 -0.034846875 -0.00125 -0.008859375 0.320687946562
18 1 -0.034846875 -0.00125 -0.007678125 0.00713505279549
19 1 -0.034846875 -0.00125 -0.006496875 0.0028445981816
20 1 -0.034846875 -0.00125 -0.005315625 0.00154813293271
21 1 -0.034846875 -0.00125 -0.004134375 0.281290216208
22 1 -0.034846875 -0.00125 -0.002953125 0.412738808647
23 1 -0.034846875 -0.00125 -0.001771875 0.609625938955
24 1 -0.034846875 -0.00125 -0.000590625 0.159358746116
25 1 -0.034846875 -0.00125 0.000590625 1.77731074088e-06
26 1 -0.034846875 -0.00125 0.001771875 0.0
27 1 -0.034846875 -0.00125 0.002953125 0.0
28 1 -0.034846875 -0.00125 0.004134375 0.0
29 1 -0.034846875 -0.00125 0.005315625 0.0
30 1 -0.034846875 -0.00125 0.006496875 0.0156289599994
31 1 -0.034846875 -0.00125 0.007678125 0.323094188482
32 1 -0.034846875 -0.00125 0.008859375 0.0180058544457
33 1 -0.034846875 -0.00125 0.010040625 0.0
34 1 -0.034846875 -0.00125 0.011221875 0.0
35 1 -0.033665625 -0.00125 -0.013584375 0.542322894073
36 1 -0.033665625 -0.00125 -0.012403125 0.0648941552085
37 1 -0.033665625 -0.00125 -0.011221875 1.61610918776e-06
38 1 -0.033665625 -0.00125 -0.010040625 0.186171540908
39 1 -0.033665625 -0.00125 -0.008859375 0.40155560828
40 1 -0.033665625 -0.00125 -0.007678125 0.3791971081
41 1 -0.033665625 -0.00125 -0.006496875 0.224469782996
42 1 -0.033665625 -0.00125 -0.005315625 0.292342717184
43 1 -0.033665625 -0.00125 -0.004134375 0.620802845142
44 1 -0.033665625 -0.00125 -0.002953125 0.470910937833
45 1 -0.033665625 -0.00125 -0.001771875 0.540276713188
46 1 -0.033665625 -0.00125 -0.000590625 0.580550471812
47 1 -0.033665625 -0.00125 0.000590625 0.0762228717045
48 1 -0.033665625 -0.00125 0.001771875 6.01557630165e-07
49 1 -0.033665625 -0.00125 0.002953125 1.22156214432e-15
50 1 -0.033665625 -0.00125 0.004134375 1.74019667629e-11
51 1 -0.033665625 -0.00125 0.005315625 1.74019667629e-11
52 1 -0.033665625 -0.00125 0.006496875 0.0443322308432
53 1 -0.033665625 -0.00125 0.007678125 0.252716464147
54 1 -0.033665625 -0.00125 0.008859375 0.00154813293271
55 1 -0.033665625 -0.00125 0.010040625 0.0
56 1 -0.033665625 -0.00125 0.011221875 0.0
57 1 -0.033665625 -0.00125 0.012403125 0.0
58 1 -0.033665625 -0.00125 0.013584375 0.0
59 1 -0.032484375 -0.00125 -0.018309375 0.0015255895059
60 1 -0.032484375 -0.00125 -0.017128125 5.44412977554e-09
61 1 -0.032484375 -0.00125 -0.015946875 0.00118221529768
62 1 -0.032484375 -0.00125 -0.014765625 0.125751848727
63 1 -0.032484375 -0.00125 -0.013584375 0.415863765984
64 1 -0.032484375 -0.00125 -0.012403125 0.416094353373
65 1 -0.032484375 -0.00125 -0.011221875 0.15935900069
66 1 -0.032484375 -0.00125 -0.010040625 0.37584553068
67 1 -0.032484375 -0.00125 -0.008859375 0.410502195917
68 1 -0.032484375 -0.00125 -0.007678125 0.303423063994
69 1 -0.032484375 -0.00125 -0.006496875 0.35127948068
70 1 -0.032484375 -0.00125 -0.005315625 0.425042808253
71 1 -0.032484375 -0.00125 -0.004134375 0.749469325643
72 1 -0.032484375 -0.00125 -0.002953125 0.595089705113
73 1 -0.032484375 -0.00125 -0.001771875 0.395964703922
74 1 -0.032484375 -0.00125 -0.000590625 0.399318936857
75 1 -0.032484375 -0.00125 0.000590625 0.226088350112
76 1 -0.032484375 -0.00125 0.001771875 0.123928365601
77 1 -0.032484375 -0.00125 0.002953125 0.0335973018971
78 1 -0.032484375 -0.00125 0.004134375 0.0207856853608
79 1 -0.032484375 -0.00125 0.005315625 0.0267810609157
80 1 -0.032484375 -0.00125 0.006496875 0.238544232212
81 1 -0.032484375 -0.00125 0.007678125 0.224469467126
82 1 -0.032484375 -0.00125 0.008859375 0.000126658199377
83 1 -0.032484375 -0.00125 0.010040625 2.79378975481e-22
84 1 -0.032484375 -0.00125 0.011221875 0.0
85 1 -0.032484375 -0.00125 0.012403125 0.0
86 1 -0.032484375 -0.00125 0.013584375 7.49709589486e-44
87 1 -0.032484375 -0.00125 0.014765625 0.00189961216998
88 1 -0.032484375 -0.00125 0.015946875 0.157466723876
89 1 -0.032484375 -0.00125 0.017128125 0.0180058544457
90 1 -0.032484375 -0.00125 0.018309375 0.000455413315469
91 1 -0.031303125 -0.00125 -0.019490625 0.00834420319552
92 1 -0.031303125 -0.00125 -0.018309375 0.0
93 1 -0.031303125 -0.00125 -0.017128125 0.00154813293271
94 1 -0.031303125 -0.00125 -0.015946875 0.246165113069
95 1 -0.031303125 -0.00125 -0.014765625 0.372492797347
96 1 -0.031303125 -0.00125 -0.013584375 0.210511756665
97 1 -0.031303125 -0.00125 -0.012403125 0.372493358291
98 1 -0.031303125 -0.00125 -0.011221875 0.010721438861
99 1 -0.031303125 -0.00125 -0.010040625 4.52220221462e-06
100 1 -0.031303125 -0.00125 -0.008859375 1.74019667629e-11
101 1 -0.031303125 -0.00125 -0.007678125 0.0243767952624
102 1 -0.031303125 -0.00125 -0.006496875 0.00565999405337
103 1 -0.031303125 -0.00125 -0.005315625 0.00322594350264
104 1 -0.031303125 -0.00125 -0.004134375 0.149294323427
105 1 -0.031303125 -0.00125 -0.002953125 0.656528561823
106 1 -0.031303125 -0.00125 -0.001771875 0.0443322841124
107 1 -0.031303125 -0.00125 -0.000590625 0.000891023127979
108 1 -0.031303125 -0.00125 0.000590625 0.119202725418
109 1 -0.031303125 -0.00125 0.001771875 0.0293069007767
110 1 -0.031303125 -0.00125 0.002953125 0.00154813293271
111 1 -0.031303125 -0.00125 0.004134375 4.52220221462e-06
112 1 -0.031303125 -0.00125 0.005315625 0.0293069007767
113 1 -0.031303125 -0.00125 0.006496875 0.416094353373
114 1 -0.031303125 -0.00125 0.007678125 0.196692230435
115 1 -0.031303125 -0.00125 0.008859375 0.000126658700522
116 1 -0.031303125 -0.00125 0.010040625 1.74019667629e-11
117 1 -0.031303125 -0.00125 0.011221875 1.74019667629e-11
118 1 -0.031303125 -0.00125 0.012403125 0.000299131636816
119 1 -0.031303125 -0.00125 0.013584375 1.28754471296e-08
120 1 -0.031303125 -0.00125 0.014765625 0.0243767952624
121 1 -0.031303125 -0.00125 0.015946875 0.00668182974929
122 1 -0.031303125 -0.00125 0.017128125 0.00474645121499
123 1 -0.031303125 -0.00125 0.018309375 0.00255490305485
124 1 -0.031303125 -0.00125 0.019490625 0.00482559872057
125 1 -0.030121875 -0.00125 -0.020671875 0.00466864259094
126 1 -0.030121875 -0.00125 -0.019490625 0.00343319798426
127 1 -0.030121875 -0.00125 -0.018309375 0.0
128 1 -0.030121875 -0.00125 -0.017128125 4.52227625942e-06
129 1 -0.030121875 -0.00125 -0.015946875 0.10900325236
130 1 -0.030121875 -0.00125 -0.014765625 0.372493358291
131 1 -0.030121875 -0.00125 -0.013584375 0.292342717184
132 1 -0.030121875 -0.00125 -0.012403125 0.707657282816
133 1 -0.030121875 -0.00125 -0.011221875 0.169569358233
134 1 -0.030121875 -0.00125 -0.010040625 0.00906546363727
135 1 -0.030121875 -0.00125 -0.008859375 1.74019667629e-11
136 1 -0.030121875 -0.00125 -0.007678125 0.000299131636816
137 1 -0.030121875 -0.00125 -0.006496875 3.07877004318e-05
138 1 -0.030121875 -0.00125 -0.005315625 0.0
139 1 -0.030121875 -0.00125 -0.004134375 0.00474645121499
140 1 -0.030121875 -0.00125 -0.002953125 0.453010895051
141 1 -0.030121875 -0.00125 -0.001771875 0.175758893257
142 1 -0.030121875 -0.00125 -0.000590625 0.0
143 1 -0.030121875 -0.00125 0.000590625 1.74019667629e-11
144 1 -0.030121875 -0.00125 0.001771875 0.000299132858986
145 1 -0.030121875 -0.00125 0.002953125 1.22156214432e-15
146 1 -0.030121875 -0.00125 0.004134375 0.000299131636816
147 1 -0.030121875 -0.00125 0.005315625 0.00668184101894
148 1 -0.030121875 -0.00125 0.006496875 0.372493077819
149 1 -0.030121875 -0.00125 0.007678125 0.263674497482
150 1 -0.030121875 -0.00125 0.008859375 0.00906546363727
151 1 -0.030121875 -0.00125 0.010040625 0.000126658700522
152 1 -0.030121875 -0.00125 0.011221875 0.0443322841124
153 1 -0.030121875 -0.00125 0.012403125 0.0443322841124
154 1 -0.030121875 -0.00125 0.013584375 0.000126658199377
155 1 -0.030121875 -0.00125 0.014765625 0.01386971523
156 1 -0.030121875 -0.00125 0.015946875 0.0293069007767
157 1 -0.030121875 -0.00125 0.017128125 0.00154813293271
158 1 -0.030121875 -0.00125 0.018309375 0.00154813293271
159 1 -0.030121875 -0.00125 0.019490625 0.00673904774485
160 1 -0.030121875 -0.00125 0.020671875 0.0
161 1 -0.028940625 -0.00125 -0.021853125 0.0225621152214
162 1 -0.028940625 -0.00125 -0.020671875 0.00713505279549
163 1 -0.028940625 -0.00125 -0.019490625 0.00565998798415
164 1 -0.028940625 -0.00125 -0.018309375 0.000126658700522
165 1 -0.028940625 -0.00125 -0.017128125 4.52220221462e-06
166 1 -0.028940625 -0.00125 -0.015946875 0.01386971523
167 1 -0.028940625 -0.00125 -0.014765625 0.303423296049
168 1 -0.028940625 -0.00125 -0.013584375 0.569364093285
169 1 -0.028940625 -0.00125 -0.012403125 0.813828459092
170 1 -0.028940625 -0.00125 -0.011221875 0.361325055821
171 1 -0.028940625 -0.00125 -0.010040625 0.00474645121499
172 1 -0.028940625 -0.00125 -0.008859375 0.00249557400626
173 1 -0.028940625 -0.00125 -0.007678125 0.00668184101894
174 1 -0.028940625 -0.00125 -0.006496875 0.00474645121499
175 1 -0.028940625 -0.00125 -0.005315625 0.0138696939255
176 1 -0.028940625 -0.00125 -0.004134375 0.0175126135393
177 1 -0.028940625 -0.00125 -0.002953125 0.159358746116
178 1 -0.028940625 -0.00125 -0.001771875 0.159358746116
179 1 -0.028940625 -0.00125 -0.000590625 0.00668184101894
180 1 -0.028940625 -0.00125 0.000590625 0.00474645121499
181 1 -0.028940625 -0.00125 0.001771875 4.52227625942e-06
182 1 -0.028940625 -0.00125 0.002953125 0.000126657572948
183 1 -0.028940625 -0.00125 0.004134375 0.0443322841124
184 1 -0.028940625 -0.00125 0.005315625 0.21372123369
185 1 -0.028940625 -0.00125 0.006496875 0.387020823644
186 1 -0.028940625 -0.00125 0.007678125 0.383667992273
187 1 -0.028940625 -0.00125 0.008859375 0.292342717184
188 1 -0.028940625 -0.00125 0.010040625 0.14929428164
189 1 -0.028940625 -0.00125 0.011221875 0.292342717184
190 1 -0.028940625 -0.00125 0.012403125 0.0243767952624
191 1 -0.028940625 -0.00125 0.013584375 0.0564723479874
192 1 -0.028940625 -0.00125 0.014765625 0.01386971523
193 1 -0.028940625 -0.00125 0.015946875 0.0293069007767
194 1 -0.028940625 -0.00125 0.017128125 0.0138696939255
195 1 -0.028940625 -0.00125 0.018309375 0.0138696939255
196 1 -0.028940625 -0.00125 0.019490625 0.0335974064356
197 1 -0.028940625 -0.00125 0.020671875 0.0
198 1 -0.028940625 -0.00125 0.021853125 0.0
199 1 -0.027759375 -0.00125 -0.024215625 0.0
200 1 -0.027759375 -0.00125 -0.023034375 5.44412977554e-09
201 1 -0.027759375 -0.00125 -0.021853125 0.00255490305485
202 1 -0.027759375 -0.00125 -0.020671875 0.0999860491522
203 1 -0.027759375 -0.00125 -0.019490625 0.0412041993389
204 1 -0.027759375 -0.00125 -0.018309375 0.00668182974929
205 1 -0.027759375 -0.00125 -0.017128125 0.123928325831
206 1 -0.027759375 -0.00125 -0.015946875 0.252716967449
207 1 -0.027759375 -0.00125 -0.014765625 0.292342717184
208 1 -0.027759375 -0.00125 -0.013584375 0.589497804083
209 1 -0.027759375 -0.00125 -0.012403125 0.224469737872
210 1 -0.027759375 -0.00125 -0.011221875 0.824241020098
211 1 -0.027759375 -0.00125 -0.010040625 0.0443322841124
212 1 -0.027759375 -0.00125 -0.008859375 0.00154813293271
213 1 -0.027759375 -0.00125 -0.007678125 0.224469737872
214 1 -0.027759375 -0.00125 -0.006496875 0.224469737872
215 1 -0.027759375 -0.00125 -0.005315625 0.303423296049
216 1 -0.027759375 -0.00125 -0.004134375 0.332327069371
217 1 -0.027759375 -0.00125 -0.002953125 0.441823107051
218 1 -0.027759375 -0.00125 -0.001771875 0.332327069371
219 1 -0.027759375 -0.00125 -0.000590625 0.31785993773
220 1 -0.027759375 -0.00125 0.000590625 0.383667992273
221 1 -0.027759375 -0.00125 0.001771875 0.186171540908
222 1 -0.027759375 -0.00125 0.002953125 0.14929428164
223 1 -0.027759375 -0.00125 0.004134375 0.448535349767
224 1 -0.027759375 -0.00125 0.005315625 0.459723333625
225 1 -0.027759375 -0.00125 0.006496875 0.494405848084
226 1 -0.027759375 -0.00125 0.007678125 0.40155560828
227 1 -0.027759375 -0.00125 0.008859375 0.517900778604
228 1 -0.027759375 -0.00125 0.010040625 0.459722771872
229 1 -0.027759375 -0.00125 0.011221875 0.321195978177
230 1 -0.027759375 -0.00125 0.012403125 0.0999860491522
231 1 -0.027759375 -0.00125 0.013584375 0.0529663217973
232 1 -0.027759375 -0.00125 0.014765625 0.0293069007767
233 1 -0.027759375 -0.00125 0.015946875 0.0138696939255
234 1 -0.027759375 -0.00125 0.017128125 0.0293069007767
235 1 -0.027759375 -0.00125 0.018309375 0.0293069007767
236 1 -0.027759375 -0.00125 0.019490625 0.21908624719
237 1 -0.027759375 -0.00125 0.020671875 0.00474645121499
238 1 -0.027759375 -0.00125 0.021853125 0.0
239 1 -0.027759375 -0.00125 0.023034375 0.0
240 1 -0.027759375 -0.00125 0.024215625 0.0
241 1 -0.026578125 -0.00125 -0.026578125 0.0
242 1 -0.026578125 -0.00125 -0.025396875 0.0
243 1 -0.026578125 -0.00125 -0.024215625 0.0
244 1 -0.026578125 -0.00125 -0.023034375 0.0
245 1 -0.026578125 -0.00125 -0.021853125 0.00284458672872
246 1 -0.026578125 -0.00125 -0.020671875 0.0802910104399
247 1 -0.026578125 -0.00125 -0.019490625 0.212115973429
248 1 -0.026578125 -0.00125 -0.018309375 0.141358367253
249 1 -0.026578125 -0.00125 -0.017128125 0.221237697261
250 1 -0.026578125 -0.00125 -0.015946875 0.283498372597
251 1 -0.026578125 -0.00125 -0.014765625 0.427279801523
252 1 -0.026578125 -0.00125 -0.013584375 0.52461362215
253 1 -0.026578125 -0.00125 -0.012403125 0.104463011071
254 1 -0.026578125 -0.00125 -0.011221875 0.337897722783
255 1 -0.026578125 -0.00125 -0.010040625 0.249438537977
256 1 -0.026578125 -0.00125 -0.008859375 0.252716738676
257 1 -0.026578125 -0.00125 -0.007678125 0.410501961931
258 1 -0.026578125 -0.00125 -0.006496875 0.408824401368
259 1 -0.026578125 -0.00125 -0.005315625 0.40155560828
260 1 -0.026578125 -0.00125 -0.004134375 0.314525490432
261 1 -0.026578125 -0.00125 -0.002953125 0.186171278084
262 1 -0.026578125 -0.00125 -0.001771875 0.0564721694534
263 1 -0.026578125 -0.00125 -0.000590625 0.0504185358685
264 1 -0.026578125 -0.00125 0.000590625 0.192773125505
265 1 -0.026578125 -0.00125 0.001771875 0.436229699835
266 1 -0.026578125 -0.00125 0.002953125 0.598444625667
267 1 -0.026578125 -0.00125 0.004134375 0.456366870211
268 1 -0.026578125 -0.00125 0.005315625 0.341241773452
269 1 -0.026578125 -0.00125 0.006496875 0.692138427182
270 1 -0.026578125 -0.00125 0.007678125 0.549226860608
271 1 -0.026578125 -0.00125 0.008859375 0.595089705113
272 1 -0.026578125 -0.00125 0.010040625 0.315636449038
273 1 -0.026578125 -0.00125 0.011221875 0.151294828347
274 1 -0.026578125 -0.00125 0.012403125 0.036431516761
275 1 -0.026578125 -0.00125 0.013584375 0.101322245938
276 1 -0.026578125 -0.00125 0.014765625 0.0955753735432
277 1 -0.026578125 -0.00125 0.015946875 0.0529662494986
278 1 -0.026578125 -0.00125 0.017128125 0.154307352577
279 1 -0.026578125 -0.00125 0.018309375 0.520138082017
280 1 -0.026578125 -0.00125 0.019490625 0.400437259017
281 1 -0.026578125 -0.00125 0.020671875 1.58379826604e-05
282 1 -0.026578125 -0.00125 0.021853125 0.0
283 1 -0.026578125 -0.00125 0.023034375 0.0
284 1 -0.026578125 -0.00125 0.024215625 0.0
285 1 -0.026578125 -0.00125 0.025396875 0.0
286 1 -0.026578125 -0.00125 0.026578125 0.0
287 1 -0.025396875 -0.00125 -0.026578125 1.27653918126e-20
288 1 -0.025396875 -0.00125 -0.025396875 6.01557630165e-07
289 1 -0.025396875 -0.00125 -0.024215625 0.0
290 1 -0.025396875 -0.00125 -0.023034375 1.74019667629e-11
291 1 -0.025396875 -0.00125 -0.021853125 4.52227625942e-06
292 1 -0.025396875 -0.00125 -0.020671875 0.00474644221021
293 1 -0.025396875 -0.00125 -0.019490625 0.266970550892
294 1 -0.025396875 -0.00125 -0.018309375 0.332327069371
295 1 -0.025396875 -0.00125 -0.017128125 0.159358746116
296 1 -0.025396875 -0.00125 -0.015946875 0.0999860491522
297 1 -0.025396875 -0.00125 -0.014765625 0.159358746116
298 1 -0.025396875 -0.00125 -0.013584375 0.82940202014
299 1 -0.025396875 -0.00125 -0.012403125 0.707656727127
300 1 -0.025396875 -0.00125 -0.011221875 0.310082079515
301 1 -0.025396875 -0.00125 -0.010040625 0.274673763196
302 1 -0.025396875 -0.00125 -0.008859375 0.252716967449
303 1 -0.025396875 -0.00125 -0.007678125 0.196692230435
304 1 -0.025396875 -0.00125 -0.006496875 0.167516386218
305 1 -0.025396875 -0.00125 -0.005315625 0.091233852548
306 1 -0.025396875 -0.00125 -0.004134375 0.263675002831
307 1 -0.025396875 -0.00125 -0.002953125 0.241806908695
308 1 -0.025396875 -0.00125 -0.001771875 0.248346901671
309 1 -0.025396875 -0.00125 -0.000590625 0.0221841500226
310 1 -0.025396875 -0.00125 0.000590625 5.83931749317e-06
311 1 -0.025396875 -0.00125 0.001771875 0.000891017573599
312 1 -0.025396875 -0.00125 0.002953125 0.224469737872
313 1 -0.025396875 -0.00125 0.004134375 0.529089062167
314 1 -0.025396875 -0.00125 0.005315625 0.540277181315
315 1 -0.025396875 -0.00125 0.006496875 0.786278497416
316 1 -0.025396875 -0.00125 0.007678125 0.430635859907
317 1 -0.025396875 -0.00125 0.008859375 0.0443322841124
318 1 -0.025396875 -0.00125 0.010040625 0.0698876476892
319 1 -0.025396875 -0.00125 0.011221875 0.133535038668
320 1 -0.025396875 -0.00125 0.012403125 0.540277181315
321 1 -0.025396875 -0.00125 0.013584375 0.77553048775
322 1 -0.025396875 -0.00125 0.014765625 0.332326556717
323 1 -0.025396875 -0.00125 0.015946875 0.186171540908
324 1 -0.025396875 -0.00125 0.017128125 0.186171540908
325 1 -0.025396875 -0.00125 0.018309375 0.175758893257
326 1 -0.025396875 -0.00125 0.019490625 0.00284458418363
327 1 -0.025396875 -0.00125 0.020671875 0.0
328 1 -0.025396875 -0.00125 0.021853125 0.0
329 1 -0.025396875 -0.00125 0.023034375 0.0
330 1 -0.025396875 -0.00125 0.024215625 0.0
331 1 -0.025396875 -0.00125 0.025396875 0.0
332 1 -0.025396875 -0.00125 0.026578125 0.0
333 1 -0.024215625 -0.00125 -0.027759375 5.44412977554e-09
334 1 -0.024215625 -0.00125 -0.026578125 0.00179934336948
335 1 -0.024215625 -0.00125 -0.025396875 0.0138696939255
336 1 -0.024215625 -0.00125 -0.024215625 0.0107214510125
337 1 -0.024215625 -0.00125 -0.023034375 0.0999860491522
338 1 -0.024215625 -0.00125 -0.021853125 0.0107214510125
339 1 -0.024215625 -0.00125 -0.020671875 0.00154813293271
340 1 -0.024215625 -0.00125 -0.019490625 0.180950835502
341 1 -0.024215625 -0.00125 -0.018309375 0.482099736343
342 1 -0.024215625 -0.00125 -0.017128125 0.159358746116
343 1 -0.024215625 -0.00125 -0.015946875 0.159358746116
344 1 -0.024215625 -0.00125 -0.014765625 0.0999860491522
345 1 -0.024215625 -0.00125 -0.013584375 0.273792254541
346 1 -0.024215625 -0.00125 -0.012403125 0.930112547671
347 1 -0.024215625 -0.00125 -0.011221875 0.470910937833
348 1 -0.024215625 -0.00125 -0.010040625 0.109003711423
349 1 -0.024215625 -0.00125 -0.008859375 0.1182640027
350 1 -0.024215625 -0.00125 -0.007678125 0.0622852495443
351 1 -0.024215625 -0.00125 -0.006496875 0.219086517041
352 1 -0.024215625 -0.00125 -0.005315625 0.27026908404
353 1 -0.024215625 -0.00125 -0.004134375 0.139391385346
354 1 -0.024215625 -0.00125 -0.002953125 0.535801498284
355 1 -0.024215625 -0.00125 -0.001771875 0.419450043018
356 1 -0.024215625 -0.00125 -0.000590625 0.208909782286
357 1 -0.024215625 -0.00125 0.000590625 0.106453037875
358 1 -0.024215625 -0.00125 0.001771875 0.0550579936718
359 1 -0.024215625 -0.00125 0.002953125 0.390374014268
360 1 -0.024215625 -0.00125 0.004134375 0.660987899129
361 1 -0.024215625 -0.00125 0.005315625 0.569364093285
362 1 -0.024215625 -0.00125 0.006496875 0.709870140086
363 1 -0.024215625 -0.00125 0.007678125 0.133535038668
364 1 -0.024215625 -0.00125 0.008859375 0.0698876476892
365 1 -0.024215625 -0.00125 0.010040625 0.0698876476892
366 1 -0.024215625 -0.00125 0.011221875 0.0999860491522
367 1 -0.024215625 -0.00125 0.012403125 0.321195978177
368 1 -0.024215625 -0.00125 0.013584375 0.669900463498
369 1 -0.024215625 -0.00125 0.014765625 0.488812258104
370 1 -0.024215625 -0.00125 0.015946875 0.086119628518
371 1 -0.024215625 -0.00125 0.017128125 0.00154813293271
372 1 -0.024215625 -0.00125 0.018309375 0.000126657572948
373 1 -0.024215625 -0.00125 0.019490625 7.02299466978e-08
374 1 -0.024215625 -0.00125 0.020671875 0.0
375 1 -0.024215625 -0.00125 0.021853125 0.0
376 1 -0.024215625 -0.00125 0.023034375 0.0
377 1 -0.024215625 -0.00125 0.024215625 0.0
378 1 -0.024215625 -0.00125 0.025396875 0.0
379 1 -0.024215625 -0.00125 0.026578125 0.0
380 1 -0.024215625 -0.00125 0.027759375 0.0
381 1 -0.023034375 -0.00125 -0.027759375 0.0648941709999
382 1 -0.023034375 -0.00125 -0.026578125 0.346816844941
383 1 -0.023034375 -0.00125 -0.025396875 0.40155560828
384 1 -0.023034375 -0.00125 -0.024215625 0.372493358291
385 1 -0.023034375 -0.00125 -0.023034375 0.419450043018
386 1 -0.023034375 -0.00125 -0.021853125 0.303423296049
387 1 -0.023034375 -0.00125 -0.020671875 0.21372123369
388 1 -0.023034375 -0.00125 -0.019490625 0.39037452881
389 1 -0.023034375 -0.00125 -0.018309375 0.383667992273
390 1 -0.023034375 -0.00125 -0.017128125 0.3791971081
391 1 -0.023034375 -0.00125 -0.015946875 0.0698876476892
392 1 -0.023034375 -0.00125 -0.014765625 0.0698876476892
393 1 -0.023034375 -0.00125 -0.013584375 0.30120517217
394 1 -0.023034375 -0.00125 -0.012403125 0.922159681911
395 1 -0.023034375 -0.00125 -0.011221875 0.740713435275
396 1 -0.023034375 -0.00125 -0.010040625 0.372493358291
397 1 -0.023034375 -0.00125 -0.008859375 0.0999860491522
398 1 -0.023034375 -0.00125 -0.007678125 0.00154813293271
399 1 -0.023034375 -0.00125 -0.006496875 0.162407426649
400 1 -0.023034375 -0.00125 -0.005315625 0.0138696939255
401 1 -0.023034375 -0.00125 -0.004134375 0.114532075754
402 1 -0.023034375 -0.00125 -0.002953125 0.441823107051
403 1 -0.023034375 -0.00125 -0.001771875 0.321196490136
404 1 -0.023034375 -0.00125 -0.000590625 0.339012660515
405 1 -0.023034375 -0.00125 0.000590625 0.315637007098
406 1 -0.023034375 -0.00125 0.001771875 0.321196490136
407 1 -0.023034375 -0.00125 0.002953125 0.605153546988
408 1 -0.023034375 -0.00125 0.004134375 0.649836265644
409 1 -0.023034375 -0.00125 0.005315625 0.580550471812
410 1 -0.023034375 -0.00125 0.006496875 0.511188022776
411 1 -0.023034375 -0.00125 0.007678125 0.0509111013046
412 1 -0.023034375 -0.00125 0.008859375 0.0698876476892
413 1 -0.023034375 -0.00125 0.010040625 0.224469737872
414 1 -0.023034375 -0.00125 0.011221875 0.540276713188
415 1 -0.023034375 -0.00125 0.012403125 0.558176892949
416 1 -0.023034375 -0.00125 0.013584375 0.722019795807
417 1 -0.023034375 -0.00125 0.014765625 0.540277181315
418 1 -0.023034375 -0.00125 0.015946875 0.091233852548
419 1 -0.023034375 -0.00125 0.017128125 0.00154813293271
420 1 -0.023034375 -0.00125 0.018309375 0.000126657572948
421 1 -0.023034375 -0.00125 0.019490625 1.58379826604e-05
422 1 -0.023034375 -0.00125 0.020671875 0.0
423 1 -0.023034375 -0.00125 0.021853125 0.0
424 1 -0.023034375 -0.00125 0.023034375 0.0
425 1 -0.023034375 -0.00125 0.024215625 0.0
426 1 -0.023034375 -0.00125 0.025396875 0.0
427 1 -0.023034375 -0.00125 0.026578125 0.0
428 1 -0.023034375 -0.00125 0.027759375 0.00106278235535
429 1 -0.021853125 -0.00125 -0.028940625 0.0225621152214
430 1 -0.021853125 -0.00125 -0.027759375 0.559032400077
431 1 -0.021853125 -0.00125 -0.026578125 0.534683135898
432 1 -0.021853125 -0.00125 -0.025396875 0.470910937833
433 1 -0.021853125 -0.00125 -0.024215625 0.224469737872
434 1 -0.021853125 -0.00125 -0.023034375 0.186171540908
435 1 -0.021853125 -0.00125 -0.021853125 0.390374014268
436 1 -0.021853125 -0.00125 -0.020671875 0.546989619883
437 1 -0.021853125 -0.00125 -0.019490625 0.67546652576
438 1 -0.021853125 -0.00125 -0.018309375 0.678804021823
439 1 -0.021853125 -0.00125 -0.017128125 0.60962547119
440 1 -0.021853125 -0.00125 -0.015946875 0.40155560828
441 1 -0.021853125 -0.00125 -0.014765625 0.0698876476892
442 1 -0.021853125 -0.00125 -0.013584375 0.141358367253
443 1 -0.021853125 -0.00125 -0.012403125 0.529089062167
444 1 -0.021853125 -0.00125 -0.011221875 0.999108981871
445 1 -0.021853125 -0.00125 -0.010040625 0.620802377555
446 1 -0.021853125 -0.00125 -0.008859375 0.368025128148
447 1 -0.021853125 -0.00125 -0.007678125 0.114532075754
448 1 -0.021853125 -0.00125 -0.006496875 0.0660413097959
449 1 -0.021853125 -0.00125 -0.005315625 0.00668182974929
450 1 -0.021853125 -0.00125 -0.004134375 0.21372123369
451 1 -0.021853125 -0.00125 -0.002953125 0.522376039939
452 1 -0.021853125 -0.00125 -0.001771875 0.638674944179
453 1 -0.021853125 -0.00125 -0.000590625 0.252717013204
454 1 -0.021853125 -0.00125 0.000590625 0.0564721694534
455 1 -0.021853125 -0.00125 0.001771875 0.133535038668
456 1 -0.021853125 -0.00125 0.002953125 0.587261144554
457 1 -0.021853125 -0.00125 0.004134375 0.747283490098
458 1 -0.021853125 -0.00125 0.005315625 0.609625938955
459 1 -0.021853125 -0.00125 0.006496875 0.159358746116
460 1 -0.021853125 -0.00125 0.007678125 0.0293069007767
461 1 -0.021853125 -0.00125 0.008859375 0.186171540908
462 1 -0.021853125 -0.00125 0.010040625 0.59844434493
463 1 -0.021853125 -0.00125 0.011221875 0.470910984646
464 1 -0.021853125 -0.00125 0.012403125 0.540276713188
465 1 -0.021853125 -0.00125 0.013584375 0.107179814045
466 1 -0.021853125 -0.00125 0.014765625 0.263674497482
467 1 -0.021853125 -0.00125 0.015946875 0.441823153862
468 1 -0.021853125 -0.00125 0.017128125 0.0698876476892
469 1 -0.021853125 -0.00125 0.018309375 0.000126658700522
470 1 -0.021853125 -0.00125 0.019490625 0.000535657991014
471 1 -0.021853125 -0.00125 0.020671875 1.74019667629e-11
472 1 -0.021853125 -0.00125 0.021853125 0.0
473 1 -0.021853125 -0.00125 0.023034375 0.0
474 1 -0.021853125 -0.00125 0.024215625 0.0
475 1 -0.021853125 -0.00125 0.025396875 0.0
476 1 -0.021853125 -0.00125 0.026578125 1.40785443464e-30
477 1 -0.021853125 -0.00125 0.027759375 0.00147478389665
478 1 -0.021853125 -0.00125 0.028940625 0.00466864259094
479 1 -0.020671875 -0.00125 -0.030121875 0.0
480 1 -0.020671875 -0.00125 -0.028940625 0.000245540111831
481 1 -0.020671875 -0.00125 -0.027759375 0.0293069007767
482 1 -0.020671875 -0.00125 -0.026578125 0.194580198152
483 1 -0.020671875 -0.00125 -0.025396875 0.0778403011007
484 1 -0.020671875 -0.00125 -0.024215625 1.74019667629e-11
485 1 -0.020671875 -0.00125 -0.023034375 0.0
486 1 -0.020671875 -0.00125 -0.021853125 0.0107214510125
487 1 -0.020671875 -0.00125 -0.020671875 0.13939146749
488 1 -0.020671875 -0.00125 -0.019490625 0.326759402644
489 1 -0.020671875 -0.00125 -0.018309375 0.292342717184
490 1 -0.020671875 -0.00125 -0.017128125 0.70101210735
491 1 -0.020671875 -0.00125 -0.015946875 0.803307769565
492 1 -0.020671875 -0.00125 -0.014765625 0.551464182117
493 1 -0.020671875 -0.00125 -0.013584375 0.159358746116
494 1 -0.020671875 -0.00125 -0.012403125 0.133535038668
495 1 -0.020671875 -0.00125 -0.011221875 0.390374014268
496 1 -0.020671875 -0.00125 -0.010040625 0.758193091305
497 1 -0.020671875 -0.00125 -0.008859375 0.78627876631
498 1 -0.020671875 -0.00125 -0.007678125 0.511187741896
499 1 -0.020671875 -0.00125 -0.006496875 0.384785264572
500 1 -0.020671875 -0.00125 -0.005315625 0.0381872649833
501 1 -0.020671875 -0.00125 -0.004134375 0.430635859907
502 1 -0.020671875 -0.00125 -0.002953125 0.908766147452
503 1 -0.020671875 -0.00125 -0.001771875 0.986130306074
504 1 -0.020671875 -0.00125 -0.000590625 0.605153546988
505 1 -0.020671875 -0.00125 0.000590625 0.121086673536
506 1 -0.020671875 -0.00125 0.001771875 0.114532075754
507 1 -0.020671875 -0.00125 0.002953125 0.729730869921
508 1 -0.020671875 -0.00125 0.004134375 0.678804021823
509 1 -0.020671875 -0.00125 0.005315625 0.482099221396
510 1 -0.020671875 -0.00125 0.006496875 0.0844389648668
511 1 -0.020671875 -0.00125 0.007678125 0.263674497482
512 1 -0.020671875 -0.00125 0.008859375 0.569364093285
513 1 -0.020671875 -0.00125 0.010040625 0.470910937833
514 1 -0.020671875 -0.00125 0.011221875 0.230952152116
515 1 -0.020671875 -0.00125 0.012403125 0.321196490136
516 1 -0.020671875 -0.00125 0.013584375 0.0475687247245
517 1 -0.020671875 -0.00125 0.014765625 0.196692230435
518 1 -0.020671875 -0.00125 0.015946875 0.522376039939
519 1 -0.020671875 -0.00125 0.017128125 0.0912339065983
520 1 -0.020671875 -0.00125 0.018309375 1.74019667629e-11
521 1 -0.020671875 -0.00125 0.019490625 0.000299132125684
522 1 -0.020671875 -0.00125 0.020671875 0.0
523 1 -0.020671875 -0.00125 0.021853125 0.0
524 1 -0.020671875 -0.00125 0.023034375 0.0
525 1 -0.020671875 -0.00125 0.024215625 0.0
526 1 -0.020671875 -0.00125 0.025396875 0.0
527 1 -0.020671875 -0.00125 0.026578125 3.14925560351e-13
528 1 -0.020671875 -0.00125 0.027759375 0.0107214510125
529 1 -0.020671875 -0.00125 0.028940625 0.000245540111831
530 1 -0.020671875 -0.00125 0.030121875 0.0
531 1 -0.019490625 -0.00125 -0.031303125 0.00482559872057
532 1 -0.019490625 -0.00125 -0.030121875 0.00186773646621
533 1 -0.019490625 -0.00125 -0.028940625 0.0207857392191
534 1 -0.019490625 -0.00125 -0.027759375 0.162407682301
535 1 -0.019490625 -0.00125 -0.026578125 0.0512511129765
536 1 -0.019490625 -0.00125 -0.025396875 1.74014005978e-11
537 1 -0.019490625 -0.00125 -0.024215625 2.79378975481e-22
538 1 -0.019490625 -0.00125 -0.023034375 3.14925560351e-13
539 1 -0.019490625 -0.00125 -0.021853125 0.00037578707255
540 1 -0.019490625 -0.00125 -0.020671875 0.098213500473
541 1 -0.019490625 -0.00125 -0.019490625 0.255451741774
542 1 -0.019490625 -0.00125 -0.018309375 0.0393805897781
543 1 -0.019490625 -0.00125 -0.017128125 0.366908099064
544 1 -0.019490625 -0.00125 -0.015946875 0.272470696803