ITEM: TIMESTEP
0
ITEM: NUMBER OF ATOMS
3080
ITEM: BOX BOUNDS ss ss ss
-3.7007399999999996e-02 3.7007399999999996e-02
-2.0002499999999999e-03 2.5000000000000004e-07
-3.7007399999999996e-02 3.7007399999999996e-02
ITEM: ATOMS id type x y z c_1
0 1 -0.037209375 -0.00125 -0.000590625 1.0
1 1 -0.036028125 -0.00125 -0.007678125 5.44412977554e-09
2 1 -0.036028125 -0.00125 -0.006496875 3.16235653815e-06
3 1 -0.036028125 -0.00125 -0.005315625 4.42606186288e-05
4 1 -0.036028125 -0.00125 -0.004134375 3.70458005324e-08
5 1 -0.036028125 -0.00125 -0.002953125 1.74019667629e-11
6 1 -0.036028125 -0.00125 -0.001771875 0.226627684957
7 1 -0.036028125 -0.00125 -0.000590625 0.387819413773
8 1 -0.036028125 -0.00125 0.000590625 0.150620944858
9 1 -0.036028125 -0.00125 0.001771875 0.00805644213726
10 1 -0.036028125 -0.00125 0.002953125 0.0
11 1 -0.036028125 -0.00125 0.004134375 0.0
12 1 -0.036028125 -0.00125 0.005315625 0.0
13 1 -0.036028125 -0.00125 0.006496875 0.0
14 1 -0.036028125 -0.00125 0.007678125 0.0
15 1 -0.034846875 -0.00125 -0.011221875 0.000455413315469
16 1 -0.034846875 -0.00125 -0.010040625 0.226627684957
17 1 -0.034846875 -0.00125 -0.008859375 0.217950860068
18 1 -0.034846875 -0.00125 -0.007678125 0.0
19 1 -0.034846875 -0.00125 -0.006496875 0.0
20 1 -0.034846875 -0.00125 -0.005315625 0.0
21 1 -0.034846875 -0.00125 -0.004134375 1.74019667629e-11
22 1 -0.034846875 -0.00125 -0.002953125 0.000891023127979
23 1 -0.034846875 -0.00125 -0.001771875 0.0381872278205
24 1 -0.034846875 -0.00125 -0.000590625 0.40155560828
25 1 -0.034846875 -0.00125 0.000590625 0.151294828347
26 1 -0.034846875 -0.00125 0.001771875 4.52220221462e-06
27 1 -0.034846875 -0.00125 0.002953125 0.0
28 1 -0.034846875 -0.00125 0.004134375 0.0
29 1 -0.034846875 -0.00125 0.005315625 0.0
30 1 -0.034846875 -0.00125 0.006496875 0.0
31 1 -0.034846875 -0.00125 0.007678125 0.0
32 1 -0.034846875 -0.00125 0.008859375 0.0
33 1 -0.034846875 -0.00125 0.010040625 0.0
34 1 -0.034846875 -0.00125 0.011221875 0.0
35 1 -0.033665625 -0.00125 -0.013584375 0.0
36 1 -0.033665625 -0.00125 -0.012403125 1.63558782507e-05
37 1 -0.033665625 -0.00125 -0.011221875 0.0
38 1 -0.033665625 -0.00125 -0.010040625 0.224469737872
39 1 -0.033665625 -0.00125 -0.008859375 0.186171540908
40 1 -0.033665625 -0.00125 -0.007678125 0.0
41 1 -0.033665625 -0.00125 -0.006496875 0.0
42 1 -0.033665625 -0.00125 -0.005315625 0.0
43 1 -0.033665625 -0.00125 -0.004134375 0.0
44 1 -0.033665625 -0.00125 -0.002953125 0.000126657572948
45 1 -0.033665625 -0.00125 -0.001771875 0.0999860491522
46 1 -0.033665625 -0.00125 -0.000590625 0.540277181315
47 1 -0.033665625 -0.00125 0.000590625 0.177832519137
48 1 -0.033665625 -0.00125 0.001771875 4.52227625942e-06
49 1 -0.033665625 -0.00125 0.002953125 0.0
50 1 -0.033665625 -0.00125 0.004134375 0.0
51 1 -0.033665625 -0.00125 0.005315625 0.0
52 1 -0.033665625 -0.00125 0.006496875 0.0
53 1 -0.033665625 -0.00125 0.007678125 0.0
54 1 -0.033665625 -0.00125 0.008859375 0.0
55 1 -0.033665625 -0.00125 0.010040625 0.0
56 1 -0.033665625 -0.00125 0.011221875 0.0
57 1 -0.033665625 -0.00125 0.012403125 0.182529172436
58 1 -0.033665625 -0.00125 0.013584375 0.0272764861063
59 1 -0.032484375 -0.00125 -0.018309375 0.320687388101
60 1 -0.032484375 -0.00125 -0.017128125 0.514959776072
61 1 -0.032484375 -0.00125 -0.015946875 0.317554028192
62 1 -0.032484375 -0.00125 -0.014765625 0.000308592918181
63 1 -0.032484375 -0.00125 -0.013584375 2.79378975481e-22
64 1 -0.032484375 -0.00125 -0.012403125 0.0
65 1 -0.032484375 -0.00125 -0.011221875 1.77731074088e-06
66 1 -0.032484375 -0.00125 -0.010040625 0.297879684496
67 1 -0.032484375 -0.00125 -0.008859375 0.361324541927
68 1 -0.032484375 -0.00125 -0.007678125 3.14925560351e-13
69 1 -0.032484375 -0.00125 -0.006496875 0.0
70 1 -0.032484375 -0.00125 -0.005315625 0.0
71 1 -0.032484375 -0.00125 -0.004134375 0.0
72 1 -0.032484375 -0.00125 -0.002953125 0.00228021395688
73 1 -0.032484375 -0.00125 -0.001771875 0.175758893257
74 1 -0.032484375 -0.00125 -0.000590625 0.398200923458
75 1 -0.032484375 -0.00125 0.000590625 0.227168000888
76 1 -0.032484375 -0.00125 0.001771875 2.79378975481e-22
77 1 -0.032484375 -0.00125 0.002953125 0.0
78 1 -0.032484375 -0.00125 0.004134375 2.79378975481e-22
79 1 -0.032484375 -0.00125 0.005315625 2.79378975481e-22
80 1 -0.032484375 -0.00125 0.006496875 0.0
81 1 -0.032484375 -0.00125 0.007678125 0.0
82 1 -0.032484375 -0.00125 0.008859375 0.0
83 1 -0.032484375 -0.00125 0.010040625 0.0
84 1 -0.032484375 -0.00125 0.011221875 7.02299466978e-08
85 1 -0.032484375 -0.00125 0.012403125 0.172658474079
86 1 -0.032484375 -0.00125 0.013584375 0.117217762742
87 1 -0.032484375 -0.00125 0.014765625 3.18809497776e-07
88 1 -0.032484375 -0.00125 0.015946875 5.01543484759e-08
89 1 -0.032484375 -0.00125 0.017128125 5.44412977554e-09
90 1 -0.032484375 -0.00125 0.018309375 1.7269595626e-06
91 1 -0.031303125 -0.00125 -0.019490625 3.89233970239e-05
92 1 -0.031303125 -0.00125 -0.018309375 0.057607006066
93 1 -0.031303125 -0.00125 -0.017128125 0.343471904739
94 1 -0.031303125 -0.00125 -0.015946875 0.511187741896
95 1 -0.031303125 -0.00125 -0.014765625 0.000891017573599
96 1 -0.031303125 -0.00125 -0.013584375 1.58379826604e-05
97 1 -0.031303125 -0.00125 -0.012403125 0.0999860491522
98 1 -0.031303125 -0.00125 -0.011221875 0.292342717184
99 1 -0.031303125 -0.00125 -0.010040625 0.678804021823
100 1 -0.031303125 -0.00125 -0.008859375 0.477623491928
101 1 -0.031303125 -0.00125 -0.007678125 0.0107214510125
102 1 -0.031303125 -0.00125 -0.006496875 0.0
103 1 -0.031303125 -0.00125 -0.005315625 0.0
104 1 -0.031303125 -0.00125 -0.004134375 0.0
105 1 -0.031303125 -0.00125 -0.002953125 4.42606186288e-05
106 1 -0.031303125 -0.00125 -0.001771875 0.114532075754
107 1 -0.031303125 -0.00125 -0.000590625 0.332326556717
108 1 -0.031303125 -0.00125 0.000590625 0.157334209214
109 1 -0.031303125 -0.00125 0.001771875 1.22156214432e-15
110 1 -0.031303125 -0.00125 0.002953125 1.74019667629e-11
111 1 -0.031303125 -0.00125 0.004134375 0.00668182974929
112 1 -0.031303125 -0.00125 0.005315625 0.00668182974929
113 1 -0.031303125 -0.00125 0.006496875 3.14925560351e-13
114 1 -0.031303125 -0.00125 0.007678125 0.0
115 1 -0.031303125 -0.00125 0.008859375 0.0
116 1 -0.031303125 -0.00125 0.010040625 0.0
117 1 -0.031303125 -0.00125 0.011221875 4.52220221462e-06
118 1 -0.031303125 -0.00125 0.012403125 0.123928325831
119 1 -0.031303125 -0.00125 0.013584375 0.123928325831
120 1 -0.031303125 -0.00125 0.014765625 1.74019667629e-11
121 1 -0.031303125 -0.00125 0.015946875 0.0
122 1 -0.031303125 -0.00125 0.017128125 0.0
123 1 -0.031303125 -0.00125 0.018309375 0.0
124 1 -0.031303125 -0.00125 0.019490625 2.66892347814e-17
125 1 -0.030121875 -0.00125 -0.020671875 0.000167490860231
126 1 -0.030121875 -0.00125 -0.019490625 1.27653918126e-20
127 1 -0.030121875 -0.00125 -0.018309375 0.000299132858986
128 1 -0.030121875 -0.00125 -0.017128125 0.263674497482
129 1 -0.030121875 -0.00125 -0.015946875 0.321195978177
130 1 -0.030121875 -0.00125 -0.014765625 0.00154813293271
131 1 -0.030121875 -0.00125 -0.013584375 1.58379826604e-05
132 1 -0.030121875 -0.00125 -0.012403125 0.241806908695
133 1 -0.030121875 -0.00125 -0.011221875 0.303423296049
134 1 -0.030121875 -0.00125 -0.010040625 0.149294323427
135 1 -0.030121875 -0.00125 -0.008859375 0.0199375341518
136 1 -0.030121875 -0.00125 -0.007678125 0.00474645121499
137 1 -0.030121875 -0.00125 -0.006496875 2.79378975481e-22
138 1 -0.030121875 -0.00125 -0.005315625 1.22156214432e-15
139 1 -0.030121875 -0.00125 -0.004134375 0.0
140 1 -0.030121875 -0.00125 -0.002953125 1.74019667629e-11
141 1 -0.030121875 -0.00125 -0.001771875 0.01386971523
142 1 -0.030121875 -0.00125 -0.000590625 0.247800862381
143 1 -0.030121875 -0.00125 0.000590625 0.0329344544535
144 1 -0.030121875 -0.00125 0.001771875 0.000126658700522
145 1 -0.030121875 -0.00125 0.002953125 0.0746186412079
146 1 -0.030121875 -0.00125 0.004134375 0.114532075754
147 1 -0.030121875 -0.00125 0.005315625 0.00154812961495
148 1 -0.030121875 -0.00125 0.006496875 2.79378975481e-22
149 1 -0.030121875 -0.00125 0.007678125 0.0
150 1 -0.030121875 -0.00125 0.008859375 0.0
151 1 -0.030121875 -0.00125 0.010040625 1.74019667629e-11
152 1 -0.030121875 -0.00125 0.011221875 0.000126658700522
153 1 -0.030121875 -0.00125 0.012403125 0.14929428164
154 1 -0.030121875 -0.00125 0.013584375 0.076223040211
155 1 -0.030121875 -0.00125 0.014765625 4.52220221462e-06
156 1 -0.030121875 -0.00125 0.015946875 0.0
157 1 -0.030121875 -0.00125 0.017128125 0.0
158 1 -0.030121875 -0.00125 0.018309375 0.0
159 1 -0.030121875 -0.00125 0.019490625 0.0
160 1 -0.030121875 -0.00125 0.020671875 0.0
161 1 -0.028940625 -0.00125 -0.021853125 0.0459959987098
162 1 -0.028940625 -0.00125 -0.020671875 0.0
163 1 -0.028940625 -0.00125 -0.019490625 0.0
164 1 -0.028940625 -0.00125 -0.018309375 0.000299132858986
165 1 -0.028940625 -0.00125 -0.017128125 0.263674497482
166 1 -0.028940625 -0.00125 -0.015946875 0.383667992273
167 1 -0.028940625 -0.00125 -0.014765625 0.00474645121499
168 1 -0.028940625 -0.00125 -0.013584375 6.01557630165e-07
169 1 -0.028940625 -0.00125 -0.012403125 1.74019667629e-11
170 1 -0.028940625 -0.00125 -0.011221875 0.00154812961495
171 1 -0.028940625 -0.00125 -0.010040625 4.52220221462e-06
172 1 -0.028940625 -0.00125 -0.008859375 0.0138696939255
173 1 -0.028940625 -0.00125 -0.007678125 6.01557630165e-07
174 1 -0.028940625 -0.00125 -0.006496875 0.000535659512892
175 1 -0.028940625 -0.00125 -0.005315625 0.01386971523
176 1 -0.028940625 -0.00125 -0.004134375 0.0032259559905
177 1 -0.028940625 -0.00125 -0.002953125 0.0243767756543
178 1 -0.028940625 -0.00125 -0.001771875 0.123928325831
179 1 -0.028940625 -0.00125 -0.000590625 0.21854897731
180 1 -0.028940625 -0.00125 0.000590625 0.335000434286
181 1 -0.028940625 -0.00125 0.001771875 0.31008152194
182 1 -0.028940625 -0.00125 0.002953125 0.252716464147
183 1 -0.028940625 -0.00125 0.004134375 0.000891023127979
184 1 -0.028940625 -0.00125 0.005315625 6.01557630165e-07
185 1 -0.028940625 -0.00125 0.006496875 0.0
186 1 -0.028940625 -0.00125 0.007678125 1.74019667629e-11
187 1 -0.028940625 -0.00125 0.008859375 1.74019667629e-11
188 1 -0.028940625 -0.00125 0.010040625 1.74019667629e-11
189 1 -0.028940625 -0.00125 0.011221875 0.0698876476892
190 1 -0.028940625 -0.00125 0.012403125 0.401555093596
191 1 -0.028940625 -0.00125 0.013584375 0.144321532226
192 1 -0.028940625 -0.00125 0.014765625 6.01557630165e-07
193 1 -0.028940625 -0.00125 0.015946875 0.0
194 1 -0.028940625 -0.00125 0.017128125 0.0
195 1 -0.028940625 -0.00125 0.018309375 0.0
196 1 -0.028940625 -0.00125 0.019490625 0.0
197 1 -0.028940625 -0.00125 0.020671875 0.0
198 1 -0.028940625 -0.00125 0.021853125 0.00466864259094
199 1 -0.027759375 -0.00125 -0.024215625 0.0
200 1 -0.027759375 -0.00125 -0.023034375 0.182529172436
201 1 -0.027759375 -0.00125 -0.021853125 0.166672696773
202 1 -0.027759375 -0.00125 -0.020671875 6.01557630165e-07
203 1 -0.027759375 -0.00125 -0.019490625 1.74019667629e-11
204 1 -0.027759375 -0.00125 -0.018309375 4.52227625942e-06
205 1 -0.027759375 -0.00125 -0.017128125 0.274673256093
206 1 -0.027759375 -0.00125 -0.015946875 0.412738808647
207 1 -0.027759375 -0.00125 -0.014765625 0.133535525963
208 1 -0.027759375 -0.00125 -0.013584375 6.0154364058e-07
209 1 -0.027759375 -0.00125 -0.012403125 0.0
210 1 -0.027759375 -0.00125 -0.011221875 0.0
211 1 -0.027759375 -0.00125 -0.010040625 1.74019667629e-11
212 1 -0.027759375 -0.00125 -0.008859375 4.52220221462e-06
213 1 -0.027759375 -0.00125 -0.007678125 0.00154813293271
214 1 -0.027759375 -0.00125 -0.006496875 0.0187026269802
215 1 -0.027759375 -0.00125 -0.005315625 0.13939146749
216 1 -0.027759375 -0.00125 -0.004134375 0.248346901671
217 1 -0.027759375 -0.00125 -0.002953125 0.310081568404
218 1 -0.027759375 -0.00125 -0.001771875 0.350163267536
219 1 -0.027759375 -0.00125 -0.000590625 0.292342717184
220 1 -0.027759375 -0.00125 0.000590625 0.229870432812
221 1 -0.027759375 -0.00125 0.001771875 0.0999860491522
222 1 -0.027759375 -0.00125 0.002953125 0.00668184101894
223 1 -0.027759375 -0.00125 0.004134375 1.74019667629e-11
224 1 -0.027759375 -0.00125 0.005315625 0.0
225 1 -0.027759375 -0.00125 0.006496875 0.0
226 1 -0.027759375 -0.00125 0.007678125 4.52220221462e-06
227 1 -0.027759375 -0.00125 0.008859375 0.0
228 1 -0.027759375 -0.00125 0.010040625 1.74019667629e-11
229 1 -0.027759375 -0.00125 0.011221875 0.0443322841124
230 1 -0.027759375 -0.00125 0.012403125 0.482099221396
231 1 -0.027759375 -0.00125 0.013584375 0.149294532357
232 1 -0.027759375 -0.00125 0.014765625 6.01557630165e-07
233 1 -0.027759375 -0.00125 0.015946875 0.0
234 1 -0.027759375 -0.00125 0.017128125 0.0
235 1 -0.027759375 -0.00125 0.018309375 0.0
236 1 -0.027759375 -0.00125 0.019490625 2.79378975481e-22
237 1 -0.027759375 -0.00125 0.020671875 0.0
238 1 -0.027759375 -0.00125 0.021853125 0.000245540111831
239 1 -0.027759375 -0.00125 0.023034375 0.00106278235535
240 1 -0.027759375 -0.00125 0.024215625 0.0
241 1 -0.026578125 -0.00125 -0.026578125 0.00466864259094
242 1 -0.026578125 -0.00125 -0.025396875 4.75803770454e-08
243 1 -0.026578125 -0.00125 -0.024215625 0.000126656946521
244 1 -0.026578125 -0.00125 -0.023034375 0.0564721545756
245 1 -0.026578125 -0.00125 -0.021853125 0.0886634406015
246 1 -0.026578125 -0.00125 -0.020671875 0.00154812961495
247 1 -0.026578125 -0.00125 -0.019490625 1.05578382748e-06
248 1 -0.026578125 -0.00125 -0.018309375 0.000299132125684
249 1 -0.026578125 -0.00125 -0.017128125 0.0738216716668
250 1 -0.026578125 -0.00125 -0.015946875 0.357975752709
251 1 -0.026578125 -0.00125 -0.014765625 0.381432457559
252 1 -0.026578125 -0.00125 -0.013584375 0.000126657197091
253 1 -0.026578125 -0.00125 -0.012403125 0.0
254 1 -0.026578125 -0.00125 -0.011221875 0.0
255 1 -0.026578125 -0.00125 -0.010040625 0.0
256 1 -0.026578125 -0.00125 -0.008859375 0.0
257 1 -0.026578125 -0.00125 -0.007678125 2.79378975481e-22
258 1 -0.026578125 -0.00125 -0.006496875 0.00027645636475
259 1 -0.026578125 -0.00125 -0.005315625 0.0138697081285
260 1 -0.026578125 -0.00125 -0.004134375 0.0156289676205
261 1 -0.026578125 -0.00125 -0.002953125 0.0138697081285
262 1 -0.026578125 -0.00125 -0.001771875 0.00284459563651
263 1 -0.026578125 -0.00125 -0.000590625 1.77728463318e-06
264 1 -0.026578125 -0.00125 0.000590625 2.71824019983e-12
265 1 -0.026578125 -0.00125 0.001771875 1.74019667629e-11
266 1 -0.026578125 -0.00125 0.002953125 1.74014005978e-11
267 1 -0.026578125 -0.00125 0.004134375 0.0
268 1 -0.026578125 -0.00125 0.005315625 0.0
269 1 -0.026578125 -0.00125 0.006496875 0.0
270 1 -0.026578125 -0.00125 0.007678125 0.0
271 1 -0.026578125 -0.00125 0.008859375 0.0
272 1 -0.026578125 -0.00125 0.010040625 0.0
273 1 -0.026578125 -0.00125 0.011221875 0.0475687797882
274 1 -0.026578125 -0.00125 0.012403125 0.295664152964
275 1 -0.026578125 -0.00125 0.013584375 0.118264277299
276 1 -0.026578125 -0.00125 0.014765625 0.0
277 1 -0.026578125 -0.00125 0.015946875 0.0
278 1 -0.026578125 -0.00125 0.017128125 2.79378975481e-22
279 1 -0.026578125 -0.00125 0.018309375 1.74019667629e-11
280 1 -0.026578125 -0.00125 0.019490625 0.000225539801773
281 1 -0.026578125 -0.00125 0.020671875 0.00565998798415
282 1 -0.026578125 -0.00125 0.021853125 0.00474647462745
283 1 -0.026578125 -0.00125 0.023034375 0.000126658700522
284 1 -0.026578125 -0.00125 0.024215625 0.0
285 1 -0.026578125 -0.00125 0.025396875 0.0
286 1 -0.026578125 -0.00125 0.026578125 0.0
287 1 -0.025396875 -0.00125 -0.026578125 0.00350401045154
288 1 -0.025396875 -0.00125 -0.025396875 0.00668184101894
289 1 -0.025396875 -0.00125 -0.024215625 0.0243767756543
290 1 -0.025396875 -0.00125 -0.023034375 0.186171540908
291 1 -0.025396875 -0.00125 -0.021853125 0.224469737872
292 1 -0.025396875 -0.00125 -0.020671875 0.00668182974929
293 1 -0.025396875 -0.00125 -0.019490625 0.00565998798415
294 1 -0.025396875 -0.00125 -0.018309375 0.000299132858986
295 1 -0.025396875 -0.00125 -0.017128125 0.0293069007767
296 1 -0.025396875 -0.00125 -0.015946875 0.230952152116
297 1 -0.025396875 -0.00125 -0.014765625 0.488812258104
298 1 -0.025396875 -0.00125 -0.013584375 0.00284459309142
299 1 -0.025396875 -0.00125 -0.012403125 0.0
300 1 -0.025396875 -0.00125 -0.011221875 0.0
301 1 -0.025396875 -0.00125 -0.010040625 0.0
302 1 -0.025396875 -0.00125 -0.008859375 0.0
303 1 -0.025396875 -0.00125 -0.007678125 1.74019667629e-11
304 1 -0.025396875 -0.00125 -0.006496875 3.14925560351e-13
305 1 -0.025396875 -0.00125 -0.005315625 6.01557630165e-07
306 1 -0.025396875 -0.00125 -0.004134375 0.000126657572948
307 1 -0.025396875 -0.00125 -0.002953125 0.00474645121499
308 1 -0.025396875 -0.00125 -0.001771875 0.000126657572948
309 1 -0.025396875 -0.00125 -0.000590625 0.0
310 1 -0.025396875 -0.00125 0.000590625 0.0
311 1 -0.025396875 -0.00125 0.001771875 6.01557630165e-07
312 1 -0.025396875 -0.00125 0.002953125 0.0
313 1 -0.025396875 -0.00125 0.004134375 0.0
314 1 -0.025396875 -0.00125 0.005315625 0.0
315 1 -0.025396875 -0.00125 0.006496875 0.0
316 1 -0.025396875 -0.00125 0.007678125 0.0
317 1 -0.025396875 -0.00125 0.008859375 0.0
318 1 -0.025396875 -0.00125 0.010040625 0.0
319 1 -0.025396875 -0.00125 0.011221875 0.00668184101894
320 1 -0.025396875 -0.00125 0.012403125 0.263674497482
321 1 -0.025396875 -0.00125 0.013584375 0.0085515641959
322 1 -0.025396875 -0.00125 0.014765625 6.01557630165e-07
323 1 -0.025396875 -0.00125 0.015946875 4.52227625942e-06
324 1 -0.025396875 -0.00125 0.017128125 0.000126658700522
325 1 -0.025396875 -0.00125 0.018309375 0.00154813293271
326 1 -0.025396875 -0.00125 0.019490625 0.0156289295152
327 1 -0.025396875 -0.00125 0.020671875 0.0138696939255
328 1 -0.025396875 -0.00125 0.021853125 0.0698876476892
329 1 -0.025396875 -0.00125 0.023034375 0.00474645121499
330 1 -0.025396875 -0.00125 0.024215625 0.0
331 1 -0.025396875 -0.00125 0.025396875 0.0
332 1 -0.025396875 -0.00125 0.026578125 0.0
333 1 -0.024215625 -0.00125 -0.027759375 0.0
334 1 -0.024215625 -0.00125 -0.026578125 4.7084399721e-11
335 1 -0.024215625 -0.00125 -0.025396875 4.42606186288e-05
336 1 -0.024215625 -0.00125 -0.024215625 0.0107214510125
337 1 -0.024215625 -0.00125 -0.023034375 0.0698876476892
338 1 -0.024215625 -0.00125 -0.021853125 0.281290216208
339 1 -0.024215625 -0.00125 -0.020671875 0.0509111013046
340 1 -0.024215625 -0.00125 -0.019490625 0.0229929791716
341 1 -0.024215625 -0.00125 -0.018309375 4.52220221462e-06
342 1 -0.024215625 -0.00125 -0.017128125 0.000126658700522
343 1 -0.024215625 -0.00125 -0.015946875 0.123928325831
344 1 -0.024215625 -0.00125 -0.014765625 0.725326282904
345 1 -0.024215625 -0.00125 -0.013584375 0.00734858299864
346 1 -0.024215625 -0.00125 -0.012403125 0.0
347 1 -0.024215625 -0.00125 -0.011221875 1.74019667629e-11
348 1 -0.024215625 -0.00125 -0.010040625 6.01557630165e-07
349 1 -0.024215625 -0.00125 -0.008859375 6.01557630165e-07
350 1 -0.024215625 -0.00125 -0.007678125 0.000891017573599
351 1 -0.024215625 -0.00125 -0.006496875 7.46379050804e-06
352 1 -0.024215625 -0.00125 -0.005315625 0.010721438861
353 1 -0.024215625 -0.00125 -0.004134375 0.0550579936718
354 1 -0.024215625 -0.00125 -0.002953125 0.192471666975
355 1 -0.024215625 -0.00125 -0.001771875 0.0482287944365
356 1 -0.024215625 -0.00125 -0.000590625 0.0117983389596
357 1 -0.024215625 -0.00125 0.000590625 0.0107213902548
358 1 -0.024215625 -0.00125 0.001771875 0.0550579936718
359 1 -0.024215625 -0.00125 0.002953125 0.00322594350264
360 1 -0.024215625 -0.00125 0.004134375 0.000126658700522
361 1 -0.024215625 -0.00125 0.005315625 0.000891023127979
362 1 -0.024215625 -0.00125 0.006496875 0.000535660654302
363 1 -0.024215625 -0.00125 0.007678125 4.42606186288e-05
364 1 -0.024215625 -0.00125 0.008859375 0.0
365 1 -0.024215625 -0.00125 0.010040625 0.0
366 1 -0.024215625 -0.00125 0.011221875 0.01386971523
367 1 -0.024215625 -0.00125 0.012403125 0.332326556717
368 1 -0.024215625 -0.00125 0.013584375 0.0138697081285
369 1 -0.024215625 -0.00125 0.014765625 0.000126658700522
370 1 -0.024215625 -0.00125 0.015946875 0.00474645121499
371 1 -0.024215625 -0.00125 0.017128125 0.00668182974929
372 1 -0.024215625 -0.00125 0.018309375 0.0138696939255
373 1 -0.024215625 -0.00125 0.019490625 0.0207856853608
374 1 -0.024215625 -0.00125 0.020671875 0.0138696939255
375 1 -0.024215625 -0.00125 0.021853125 0.0293069007767
376 1 -0.024215625 -0.00125 0.023034375 0.000126658700522
377 1 -0.024215625 -0.00125 0.024215625 6.01557630165e-07
378 1 -0.024215625 -0.00125 0.025396875 0.0
379 1 -0.024215625 -0.00125 0.026578125 0.0
380 1 -0.024215625 -0.00125 0.027759375 0.0
381 1 -0.023034375 -0.00125 -0.027759375 0.0075399670332
382 1 -0.023034375 -0.00125 -0.026578125 0.0
383 1 -0.023034375 -0.00125 -0.025396875 1.22156214432e-15
384 1 -0.023034375 -0.00125 -0.024215625 0.000126658700522
385 1 -0.023034375 -0.00125 -0.023034375 0.0509111013046
386 1 -0.023034375 -0.00125 -0.021853125 0.159358746116
387 1 -0.023034375 -0.00125 -0.020671875 0.0622852495443
388 1 -0.023034375 -0.00125 -0.019490625 0.0156289371363
389 1 -0.023034375 -0.00125 -0.018309375 0.000891023127979
390 1 -0.023034375 -0.00125 -0.017128125 0.000126658700522
391 1 -0.023034375 -0.00125 -0.015946875 0.0509111013046
392 1 -0.023034375 -0.00125 -0.014765625 0.511187741896
393 1 -0.023034375 -0.00125 -0.013584375 0.0122342600864
394 1 -0.023034375 -0.00125 -0.012403125 0.0
395 1 -0.023034375 -0.00125 -0.011221875 0.00154813293271
396 1 -0.023034375 -0.00125 -0.010040625 0.0243767952624
397 1 -0.023034375 -0.00125 -0.008859375 0.00474644221021
398 1 -0.023034375 -0.00125 -0.007678125 0.0138696939255
399 1 -0.023034375 -0.00125 -0.006496875 0.00179934336948
400 1 -0.023034375 -0.00125 -0.005315625 0.0964521901881
401 1 -0.023034375 -0.00125 -0.004134375 0.0550579936718
402 1 -0.023034375 -0.00125 -0.002953125 0.149294365213
403 1 -0.023034375 -0.00125 -0.001771875 0.192471666975
404 1 -0.023034375 -0.00125 -0.000590625 0.220161608427
405 1 -0.023034375 -0.00125 0.000590625 0.105366125098
406 1 -0.023034375 -0.00125 0.001771875 0.139391385346
407 1 -0.023034375 -0.00125 0.002953125 0.343471904739
408 1 -0.023034375 -0.00125 0.004134375 0.159358746116
409 1 -0.023034375 -0.00125 0.005315625 0.21372123369
410 1 -0.023034375 -0.00125 0.006496875 0.0564723331095
411 1 -0.023034375 -0.00125 0.007678125 0.0698876476892
412 1 -0.023034375 -0.00125 0.008859375 1.74019667629e-11
413 1 -0.023034375 -0.00125 0.010040625 0.0
414 1 -0.023034375 -0.00125 0.011221875 0.0293069224194
415 1 -0.023034375 -0.00125 0.012403125 0.678804021823
416 1 -0.023034375 -0.00125 0.013584375 0.024376746242
417 1 -0.023034375 -0.00125 0.014765625 0.00154813293271
418 1 -0.023034375 -0.00125 0.015946875 0.0138696939255
419 1 -0.023034375 -0.00125 0.017128125 0.0138696939255
420 1 -0.023034375 -0.00125 0.018309375 0.0138696939255
421 1 -0.023034375 -0.00125 0.019490625 0.0085515641959
422 1 -0.023034375 -0.00125 0.020671875 0.0138696939255
423 1 -0.023034375 -0.00125 0.021853125 0.000126658700522
424 1 -0.023034375 -0.00125 0.023034375 6.01557630165e-07
425 1 -0.023034375 -0.00125 0.024215625 0.0
426 1 -0.023034375 -0.00125 0.025396875 0.0
427 1 -0.023034375 -0.00125 0.026578125 1.28754471296e-08
428 1 -0.023034375 -0.00125 0.027759375 0.0339792945837
429 1 -0.021853125 -0.00125 -0.028940625 0.00466864259094
430 1 -0.021853125 -0.00125 -0.027759375 0.0
431 1 -0.021853125 -0.00125 -0.026578125 0.0
432 1 -0.021853125 -0.00125 -0.025396875 0.0
433 1 -0.021853125 -0.00125 -0.024215625 0.000126658700522
434 1 -0.021853125 -0.00125 -0.023034375 0.000126658700522
435 1 -0.021853125 -0.00125 -0.021853125 0.0293069007767
436 1 -0.021853125 -0.00125 -0.020671875 0.0138696939255
437 1 -0.021853125 -0.00125 -0.019490625 0.0207856853608
438 1 -0.021853125 -0.00125 -0.018309375 0.0107214510125
439 1 -0.021853125 -0.00125 -0.017128125 0.0138696939255
440 1 -0.021853125 -0.00125 -0.015946875 0.0999860491522
441 1 -0.021853125 -0.00125 -0.014765625 0.453010895051
442 1 -0.021853125 -0.00125 -0.013584375 0.0443322308432
443 1 -0.021853125 -0.00125 -0.012403125 1.74019667629e-11
444 1 -0.021853125 -0.00125 -0.011221875 0.00668184101894
445 1 -0.021853125 -0.00125 -0.010040625 0.0293069007767
446 1 -0.021853125 -0.00125 -0.008859375 0.00668184101894
447 1 -0.021853125 -0.00125 -0.007678125 0.0293069224194
448 1 -0.021853125 -0.00125 -0.006496875 0.0412042250543
449 1 -0.021853125 -0.00125 -0.005315625 0.0698876476892
450 1 -0.021853125 -0.00125 -0.004134375 0.0698876476892
451 1 -0.021853125 -0.00125 -0.002953125 0.0622852495443
452 1 -0.021853125 -0.00125 -0.001771875 0.21372123369
453 1 -0.021853125 -0.00125 -0.000590625 0.0458724087678
454 1 -0.021853125 -0.00125 0.000590625 0.0698874523288
455 1 -0.021853125 -0.00125 0.001771875 0.091233852548
456 1 -0.021853125 -0.00125 0.002953125 0.459722771872
457 1 -0.021853125 -0.00125 0.004134375 0.441823107051
458 1 -0.021853125 -0.00125 0.005315625 0.372492797347
459 1 -0.021853125 -0.00125 0.006496875 0.312303116458
460 1 -0.021853125 -0.00125 0.007678125 0.252716464147
461 1 -0.021853125 -0.00125 0.008859375 0.00668184101894
462 1 -0.021853125 -0.00125 0.010040625 4.52220221462e-06
463 1 -0.021853125 -0.00125 0.011221875 0.0698876476892
464 1 -0.021853125 -0.00125 0.012403125 0.667673396678
465 1 -0.021853125 -0.00125 0.013584375 0.0138697578391
466 1 -0.021853125 -0.00125 0.014765625 0.0138696939255
467 1 -0.021853125 -0.00125 0.015946875 0.0138696939255
468 1 -0.021853125 -0.00125 0.017128125 0.0138696939255
469 1 -0.021853125 -0.00125 0.018309375 0.0138696939255
470 1 -0.021853125 -0.00125 0.019490625 0.0085515641959
471 1 -0.021853125 -0.00125 0.020671875 0.0138696939255
472 1 -0.021853125 -0.00125 0.021853125 0.000126658700522
473 1 -0.021853125 -0.00125 0.023034375 0.0
474 1 -0.021853125 -0.00125 0.024215625 0.0
475 1 -0.021853125 -0.00125 0.025396875 0.0
476 1 -0.021853125 -0.00125 0.026578125 0.0
477 1 -0.021853125 -0.00125 0.027759375 0.0195453344755
478 1 -0.021853125 -0.00125 0.028940625 0.0225621152214
479 1 -0.020671875 -0.00125 -0.030121875 0.0
480 1 -0.020671875 -0.00125 -0.028940625 0.0
481 1 -0.020671875 -0.00125 -0.027759375 0.0
482 1 -0.020671875 -0.00125 -0.026578125 0.0
483 1 -0.020671875 -0.00125 -0.025396875 0.0
484 1 -0.020671875 -0.00125 -0.024215625 0.0
485 1 -0.020671875 -0.00125 -0.023034375 0.000126658700522
486 1 -0.020671875 -0.00125 -0.021853125 0.00668184101894
487 1 -0.020671875 -0.00125 -0.020671875 0.0293069007767
488 1 -0.020671875 -0.00125 -0.019490625 0.0138696939255
489 1 -0.020671875 -0.00125 -0.018309375 0.0138696939255
490 1 -0.020671875 -0.00125 -0.017128125 0.0443322841124
491 1 -0.020671875 -0.00125 -0.015946875 0.091233852548
492 1 -0.020671875 -0.00125 -0.014765625 0.423924866755
493 1 -0.020671875 -0.00125 -0.013584375 0.292343272873
494 1 -0.020671875 -0.00125 -0.012403125 0.091233852548
495 1 -0.020671875 -0.00125 -0.011221875 0.252716464147
496 1 -0.020671875 -0.00125 -0.010040625 0.303423296049
497 1 -0.020671875 -0.00125 -0.008859375 0.14929428164
498 1 -0.020671875 -0.00125 -0.007678125 0.343471904739
499 1 -0.020671875 -0.00125 -0.006496875 0.326759635518
500 1 -0.020671875 -0.00125 -0.005315625 0.224469737872
501 1 -0.020671875 -0.00125 -0.004134375 0.343471904739
502 1 -0.020671875 -0.00125 -0.002953125 0.368025128148
503 1 -0.020671875 -0.00125 -0.001771875 0.3791971081
504 1 -0.020671875 -0.00125 -0.000590625 0.180950879072
505 1 -0.020671875 -0.00125 0.000590625 0.123928325831
506 1 -0.020671875 -0.00125 0.001771875 0.3791971081
507 1 -0.020671875 -0.00125 0.002953125 0.274673256093
508 1 -0.020671875 -0.00125 0.004134375 0.21372123369
509 1 -0.020671875 -0.00125 0.005315625 0.235286796702
510 1 -0.020671875 -0.00125 0.006496875 0.312303116458
511 1 -0.020671875 -0.00125 0.007678125 0.361324541927
512 1 -0.020671875 -0.00125 0.008859375 0.0698876476892
513 1 -0.020671875 -0.00125 0.010040625 0.00154813293271
514 1 -0.020671875 -0.00125 0.011221875 0.274673763196
515 1 -0.020671875 -0.00125 0.012403125 0.551464650233
516 1 -0.020671875 -0.00125 0.013584375 0.0267810196531
517 1 -0.020671875 -0.00125 0.014765625 0.0293069007767
518 1 -0.020671875 -0.00125 0.015946875 0.0293069007767
519 1 -0.020671875 -0.00125 0.017128125 0.0138696939255
520 1 -0.020671875 -0.00125 0.018309375 0.0138696939255
521 1 -0.020671875 -0.00125 0.019490625 0.0138696939255
522 1 -0.020671875 -0.00125 0.020671875 0.00668182974929
523 1 -0.020671875 -0.00125 0.021853125 0.01386971523
524 1 -0.020671875 -0.00125 0.023034375 1.74019667629e-11
525 1 -0.020671875 -0.00125 0.024215625 0.0
526 1 -0.020671875 -0.00125 0.025396875 1.74019667629e-11
527 1 -0.020671875 -0.00125 0.026578125 0.0
528 1 -0.020671875 -0.00125 0.027759375 1.74019667629e-11
529 1 -0.020671875 -0.00125 0.028940625 1.18026294841e-10
530 1 -0.020671875 -0.00125 0.030121875 2.52587523623e-07
531 1 -0.019490625 -0.00125 -0.031303125 0.000209614639352
532 1 -0.019490625 -0.00125 -0.030121875 0.0611767387796
533 1 -0.019490625 -0.00125 -0.028940625 0.154307521041
534 1 -0.019490625 -0.00125 -0.027759375 0.0698875011689
535 1 -0.019490625 -0.00125 -0.026578125 0.0187026608024
536 1 -0.019490625 -0.00125 -0.025396875 0.0187026608024
537 1 -0.019490625 -0.00125 -0.024215625 0.0122342600864
538 1 -0.019490625 -0.00125 -0.023034375 0.0267810609157
539 1 -0.019490625 -0.00125 -0.021853125 0.0529662350389
540 1 -0.019490625 -0.00125 -0.020671875 0.0475687797882
541 1 -0.019490625 -0.00125 -0.019490625 0.0402872909544
542 1 -0.019490625 -0.00125 -0.018309375 0.0138696939255
543 1 -0.019490625 -0.00125 -0.017128125 0.00228021395688
544 1 -0.019490625 -0.00125 -0.015946875 0.00474645121499
545 1 -0.019490625 -0.00125 -0.014765625 0.0698874523288
546 1 -0.019490625 -0.00125 -0.013584375 0.487794909864
547 1 -0.019490625 -0.00125 -0.012403125 0.386861519637
548 1 -0.019490625 -0.00125 -0.011221875 0.0698875988491
549 1 -0.019490625 -0.00125 -0.010040625 0.0364314804587
550 1 -0.019490625 -0.00125 -0.008859375 0.199867928267
551 1 -0.019490625 -0.00125 -0.007678125 0.215865388974
552 1 -0.019490625 -0.00125 -0.006496875 0.151795971817
553 1 -0.019490625 -0.00125 -0.005315625 0.107179623796