ITEM: TIMESTEP
0
ITEM: NUMBER OF ATOMS
3080
ITEM: BOX BOUNDS ss ss ss
-3.7007399999999996e-02 3.7007399999999996e-02
-2.0002499999999999e-03 2.5000000000000004e-07
-3.7007399999999996e-02 3.7007399999999996e-02
ITEM: ATOMS id type x y z c_1
0 1 -0.037209375 -0.00125 -0.000590625 0.00482559872057
1 1 -0.036028125 -0.00125 -0.007678125 0.0
2 1 -0.036028125 -0.00125 -0.006496875 0.0
3 1 -0.036028125 -0.00125 -0.005315625 0.0
4 1 -0.036028125 -0.00125 -0.004134375 0.0
5 1 -0.036028125 -0.00125 -0.002953125 0.00207820714601
6 1 -0.036028125 -0.00125 -0.001771875 0.226627684957
7 1 -0.036028125 -0.00125 -0.000590625 0.0380178652805
8 1 -0.036028125 -0.00125 0.000590625 0.268886816989
9 1 -0.036028125 -0.00125 0.001771875 0.226627684957
10 1 -0.036028125 -0.00125 0.002953125 0.00207820714601
11 1 -0.036028125 -0.00125 0.004134375 0.0
12 1 -0.036028125 -0.00125 0.005315625 0.0
13 1 -0.036028125 -0.00125 0.006496875 0.0
14 1 -0.036028125 -0.00125 0.007678125 0.00920066229086
15 1 -0.034846875 -0.00125 -0.011221875 0.0
16 1 -0.034846875 -0.00125 -0.010040625 0.0
17 1 -0.034846875 -0.00125 -0.008859375 0.0
18 1 -0.034846875 -0.00125 -0.007678125 0.0
19 1 -0.034846875 -0.00125 -0.006496875 0.0
20 1 -0.034846875 -0.00125 -0.005315625 0.0
21 1 -0.034846875 -0.00125 -0.004134375 0.0
22 1 -0.034846875 -0.00125 -0.002953125 0.0443322841124
23 1 -0.034846875 -0.00125 -0.001771875 0.224469737872
24 1 -0.034846875 -0.00125 -0.000590625 0.0802910104399
25 1 -0.034846875 -0.00125 0.000590625 0.470910937833
26 1 -0.034846875 -0.00125 0.001771875 0.430635345024
27 1 -0.034846875 -0.00125 0.002953125 0.0622852495443
28 1 -0.034846875 -0.00125 0.004134375 1.74019667629e-11
29 1 -0.034846875 -0.00125 0.005315625 0.0
30 1 -0.034846875 -0.00125 0.006496875 0.0
31 1 -0.034846875 -0.00125 0.007678125 0.112788508618
32 1 -0.034846875 -0.00125 0.008859375 0.320687946562
33 1 -0.034846875 -0.00125 0.010040625 0.0
34 1 -0.034846875 -0.00125 0.011221875 0.00920066229086
35 1 -0.033665625 -0.00125 -0.013584375 0.0168418463766
36 1 -0.033665625 -0.00125 -0.012403125 0.0339792945837
37 1 -0.033665625 -0.00125 -0.011221875 0.0
38 1 -0.033665625 -0.00125 -0.010040625 0.0
39 1 -0.033665625 -0.00125 -0.008859375 0.0
40 1 -0.033665625 -0.00125 -0.007678125 0.0
41 1 -0.033665625 -0.00125 -0.006496875 0.0
42 1 -0.033665625 -0.00125 -0.005315625 0.0
43 1 -0.033665625 -0.00125 -0.004134375 0.0
44 1 -0.033665625 -0.00125 -0.002953125 0.000891023127979
45 1 -0.033665625 -0.00125 -0.001771875 0.0698876476892
46 1 -0.033665625 -0.00125 -0.000590625 0.224469737872
47 1 -0.033665625 -0.00125 0.000590625 0.332326556717
48 1 -0.033665625 -0.00125 0.001771875 0.252716464147
49 1 -0.033665625 -0.00125 0.002953125 0.0509111013046
50 1 -0.033665625 -0.00125 0.004134375 4.52220221462e-06
51 1 -0.033665625 -0.00125 0.005315625 0.0
52 1 -0.033665625 -0.00125 0.006496875 0.0
53 1 -0.033665625 -0.00125 0.007678125 0.186171540908
54 1 -0.033665625 -0.00125 0.008859375 0.186171540908
55 1 -0.033665625 -0.00125 0.010040625 0.0
56 1 -0.033665625 -0.00125 0.011221875 0.112788508618
57 1 -0.033665625 -0.00125 0.012403125 0.182529172436
58 1 -0.033665625 -0.00125 0.013584375 0.0
59 1 -0.032484375 -0.00125 -0.018309375 0.0
60 1 -0.032484375 -0.00125 -0.017128125 5.44412977554e-09
61 1 -0.032484375 -0.00125 -0.015946875 2.56728544141e-12
62 1 -0.032484375 -0.00125 -0.014765625 0.252467021765
63 1 -0.032484375 -0.00125 -0.013584375 0.0175240884837
64 1 -0.032484375 -0.00125 -0.012403125 2.79378975481e-22
65 1 -0.032484375 -0.00125 -0.011221875 0.0
66 1 -0.032484375 -0.00125 -0.010040625 0.0
67 1 -0.032484375 -0.00125 -0.008859375 2.79378975481e-22
68 1 -0.032484375 -0.00125 -0.007678125 0.0
69 1 -0.032484375 -0.00125 -0.006496875 0.0
70 1 -0.032484375 -0.00125 -0.005315625 2.79378975481e-22
71 1 -0.032484375 -0.00125 -0.004134375 1.40785443464e-30
72 1 -0.032484375 -0.00125 -0.002953125 0.00037578590857
73 1 -0.032484375 -0.00125 -0.001771875 0.119202705758
74 1 -0.032484375 -0.00125 -0.000590625 0.177454988622
75 1 -0.032484375 -0.00125 0.000590625 0.375365857179
76 1 -0.032484375 -0.00125 0.001771875 0.205179329719
77 1 -0.032484375 -0.00125 0.002953125 0.00228021395688
78 1 -0.032484375 -0.00125 0.004134375 4.52221866893e-06
79 1 -0.032484375 -0.00125 0.005315625 0.0
80 1 -0.032484375 -0.00125 0.006496875 0.0
81 1 -0.032484375 -0.00125 0.007678125 0.238544232212
82 1 -0.032484375 -0.00125 0.008859375 0.326759635518
83 1 -0.032484375 -0.00125 0.010040625 1.77731074088e-06
84 1 -0.032484375 -0.00125 0.011221875 2.79378975481e-22
85 1 -0.032484375 -0.00125 0.012403125 1.28754471296e-08
86 1 -0.032484375 -0.00125 0.013584375 0.0
87 1 -0.032484375 -0.00125 0.014765625 0.0
88 1 -0.032484375 -0.00125 0.015946875 2.66892347814e-17
89 1 -0.032484375 -0.00125 0.017128125 0.00482559872057
90 1 -0.032484375 -0.00125 0.018309375 0.00920066229086
91 1 -0.031303125 -0.00125 -0.019490625 0.0
92 1 -0.031303125 -0.00125 -0.018309375 0.0
93 1 -0.031303125 -0.00125 -0.017128125 0.0
94 1 -0.031303125 -0.00125 -0.015946875 0.0
95 1 -0.031303125 -0.00125 -0.014765625 0.186171540908
96 1 -0.031303125 -0.00125 -0.013584375 0.0364315288618
97 1 -0.031303125 -0.00125 -0.012403125 1.74019667629e-11
98 1 -0.031303125 -0.00125 -0.011221875 0.0
99 1 -0.031303125 -0.00125 -0.010040625 1.74019667629e-11
100 1 -0.031303125 -0.00125 -0.008859375 1.74019667629e-11
101 1 -0.031303125 -0.00125 -0.007678125 1.74019667629e-11
102 1 -0.031303125 -0.00125 -0.006496875 0.0
103 1 -0.031303125 -0.00125 -0.005315625 6.01557630165e-07
104 1 -0.031303125 -0.00125 -0.004134375 0.00154812961495
105 1 -0.031303125 -0.00125 -0.002953125 0.0107214510125
106 1 -0.031303125 -0.00125 -0.001771875 0.114532075754
107 1 -0.031303125 -0.00125 -0.000590625 0.167516386218
108 1 -0.031303125 -0.00125 0.000590625 0.252716464147
109 1 -0.031303125 -0.00125 0.001771875 0.0381872649833
110 1 -0.031303125 -0.00125 0.002953125 6.01557630165e-07
111 1 -0.031303125 -0.00125 0.004134375 0.0
112 1 -0.031303125 -0.00125 0.005315625 0.0
113 1 -0.031303125 -0.00125 0.006496875 0.0
114 1 -0.031303125 -0.00125 0.007678125 0.00668182974929
115 1 -0.031303125 -0.00125 0.008859375 0.390374014268
116 1 -0.031303125 -0.00125 0.010040625 0.321196490136
117 1 -0.031303125 -0.00125 0.011221875 0.000891017573599
118 1 -0.031303125 -0.00125 0.012403125 0.0
119 1 -0.031303125 -0.00125 0.013584375 0.0
120 1 -0.031303125 -0.00125 0.014765625 0.0
121 1 -0.031303125 -0.00125 0.015946875 0.0
122 1 -0.031303125 -0.00125 0.017128125 0.091233852548
123 1 -0.031303125 -0.00125 0.018309375 0.219782120575
124 1 -0.031303125 -0.00125 0.019490625 8.50218305249e-07
125 1 -0.030121875 -0.00125 -0.020671875 0.0
126 1 -0.030121875 -0.00125 -0.019490625 0.0
127 1 -0.030121875 -0.00125 -0.018309375 0.0
128 1 -0.030121875 -0.00125 -0.017128125 0.0
129 1 -0.030121875 -0.00125 -0.015946875 0.0
130 1 -0.030121875 -0.00125 -0.014765625 0.14929428164
131 1 -0.030121875 -0.00125 -0.013584375 0.169569530257
132 1 -0.030121875 -0.00125 -0.012403125 0.000126657572948
133 1 -0.030121875 -0.00125 -0.011221875 0.0
134 1 -0.030121875 -0.00125 -0.010040625 0.0
135 1 -0.030121875 -0.00125 -0.008859375 1.74019667629e-11
136 1 -0.030121875 -0.00125 -0.007678125 1.74019667629e-11
137 1 -0.030121875 -0.00125 -0.006496875 0.0
138 1 -0.030121875 -0.00125 -0.005315625 1.74019667629e-11
139 1 -0.030121875 -0.00125 -0.004134375 0.010721438861
140 1 -0.030121875 -0.00125 -0.002953125 0.0999860863438
141 1 -0.030121875 -0.00125 -0.001771875 0.123928325831
142 1 -0.030121875 -0.00125 -0.000590625 0.0243767756543
143 1 -0.030121875 -0.00125 0.000590625 0.000535662176186
144 1 -0.030121875 -0.00125 0.001771875 1.22156214432e-15
145 1 -0.030121875 -0.00125 0.002953125 0.0
146 1 -0.030121875 -0.00125 0.004134375 0.0
147 1 -0.030121875 -0.00125 0.005315625 0.0
148 1 -0.030121875 -0.00125 0.006496875 2.79378975481e-22
149 1 -0.030121875 -0.00125 0.007678125 0.000891017573599
150 1 -0.030121875 -0.00125 0.008859375 0.372493358291
151 1 -0.030121875 -0.00125 0.010040625 0.196692716986
152 1 -0.030121875 -0.00125 0.011221875 0.000126657572948
153 1 -0.030121875 -0.00125 0.012403125 0.0
154 1 -0.030121875 -0.00125 0.013584375 0.0
155 1 -0.030121875 -0.00125 0.014765625 0.0
156 1 -0.030121875 -0.00125 0.015946875 0.000126658700522
157 1 -0.030121875 -0.00125 0.017128125 0.292342717184
158 1 -0.030121875 -0.00125 0.018309375 0.186171540908
159 1 -0.030121875 -0.00125 0.019490625 0.0
160 1 -0.030121875 -0.00125 0.020671875 0.0
161 1 -0.028940625 -0.00125 -0.021853125 0.000167490860231
162 1 -0.028940625 -0.00125 -0.020671875 1.18026294841e-10
163 1 -0.028940625 -0.00125 -0.019490625 0.0
164 1 -0.028940625 -0.00125 -0.018309375 0.0
165 1 -0.028940625 -0.00125 -0.017128125 0.0
166 1 -0.028940625 -0.00125 -0.015946875 0.0
167 1 -0.028940625 -0.00125 -0.014765625 0.159358746116
168 1 -0.028940625 -0.00125 -0.013584375 0.297879962665
169 1 -0.028940625 -0.00125 -0.012403125 0.00154813293271
170 1 -0.028940625 -0.00125 -0.011221875 1.74019667629e-11
171 1 -0.028940625 -0.00125 -0.010040625 0.0
172 1 -0.028940625 -0.00125 -0.008859375 0.0
173 1 -0.028940625 -0.00125 -0.007678125 0.0
174 1 -0.028940625 -0.00125 -0.006496875 2.79378975481e-22
175 1 -0.028940625 -0.00125 -0.005315625 0.000299131636816
176 1 -0.028940625 -0.00125 -0.004134375 0.000299131636816
177 1 -0.028940625 -0.00125 -0.002953125 0.0175125972543
178 1 -0.028940625 -0.00125 -0.001771875 0.0912339065983
179 1 -0.028940625 -0.00125 -0.000590625 0.00474645121499
180 1 -0.028940625 -0.00125 0.000590625 1.68584029366e-07
181 1 -0.028940625 -0.00125 0.001771875 0.00322594350264
182 1 -0.028940625 -0.00125 0.002953125 0.000891017573599
183 1 -0.028940625 -0.00125 0.004134375 0.0243767952624
184 1 -0.028940625 -0.00125 0.005315625 0.0381872278205
185 1 -0.028940625 -0.00125 0.006496875 0.0762230570617
186 1 -0.028940625 -0.00125 0.007678125 0.390374014268
187 1 -0.028940625 -0.00125 0.008859375 0.350163781038
188 1 -0.028940625 -0.00125 0.010040625 0.0138696939255
189 1 -0.028940625 -0.00125 0.011221875 4.52220221462e-06
190 1 -0.028940625 -0.00125 0.012403125 1.74019667629e-11
191 1 -0.028940625 -0.00125 0.013584375 0.0
192 1 -0.028940625 -0.00125 0.014765625 0.0
193 1 -0.028940625 -0.00125 0.015946875 0.01386971523
194 1 -0.028940625 -0.00125 0.017128125 0.736325502518
195 1 -0.028940625 -0.00125 0.018309375 0.091233852548
196 1 -0.028940625 -0.00125 0.019490625 0.0
197 1 -0.028940625 -0.00125 0.020671875 0.0
198 1 -0.028940625 -0.00125 0.021853125 0.0
199 1 -0.027759375 -0.00125 -0.024215625 5.44412977554e-09
200 1 -0.027759375 -0.00125 -0.023034375 0.0418564289367
201 1 -0.027759375 -0.00125 -0.021853125 0.000245540111831
202 1 -0.027759375 -0.00125 -0.020671875 0.0
203 1 -0.027759375 -0.00125 -0.019490625 2.79378975481e-22
204 1 -0.027759375 -0.00125 -0.018309375 0.0
205 1 -0.027759375 -0.00125 -0.017128125 0.0
206 1 -0.027759375 -0.00125 -0.015946875 0.0
207 1 -0.027759375 -0.00125 -0.014765625 0.114532075754
208 1 -0.027759375 -0.00125 -0.013584375 0.542514451099
209 1 -0.027759375 -0.00125 -0.012403125 0.0443322841124
210 1 -0.027759375 -0.00125 -0.011221875 0.000126658700522
211 1 -0.027759375 -0.00125 -0.010040625 1.74019667629e-11
212 1 -0.027759375 -0.00125 -0.008859375 0.0
213 1 -0.027759375 -0.00125 -0.007678125 0.0
214 1 -0.027759375 -0.00125 -0.006496875 0.0
215 1 -0.027759375 -0.00125 -0.005315625 0.000126657572948
216 1 -0.027759375 -0.00125 -0.004134375 1.74019667629e-11
217 1 -0.027759375 -0.00125 -0.002953125 6.01557630165e-07
218 1 -0.027759375 -0.00125 -0.001771875 0.0243767952624
219 1 -0.027759375 -0.00125 -0.000590625 0.0550579642476
220 1 -0.027759375 -0.00125 0.000590625 0.0645277377989
221 1 -0.027759375 -0.00125 0.001771875 0.0746186412079
222 1 -0.027759375 -0.00125 0.002953125 0.08277044804
223 1 -0.027759375 -0.00125 0.004134375 0.0698876802493
224 1 -0.027759375 -0.00125 0.005315625 0.0698876476892
225 1 -0.027759375 -0.00125 0.006496875 0.0698876639693
226 1 -0.027759375 -0.00125 0.007678125 0.123928325831
227 1 -0.027759375 -0.00125 0.008859375 0.000891017573599
228 1 -0.027759375 -0.00125 0.010040625 4.52220221462e-06
229 1 -0.027759375 -0.00125 0.011221875 1.74019667629e-11
230 1 -0.027759375 -0.00125 0.012403125 0.0
231 1 -0.027759375 -0.00125 0.013584375 0.0
232 1 -0.027759375 -0.00125 0.014765625 1.74019667629e-11
233 1 -0.027759375 -0.00125 0.015946875 0.123928325831
234 1 -0.027759375 -0.00125 0.017128125 0.5
235 1 -0.027759375 -0.00125 0.018309375 0.000126658700522
236 1 -0.027759375 -0.00125 0.019490625 0.0
237 1 -0.027759375 -0.00125 0.020671875 0.0
238 1 -0.027759375 -0.00125 0.021853125 0.0
239 1 -0.027759375 -0.00125 0.023034375 0.0
240 1 -0.027759375 -0.00125 0.024215625 0.0
241 1 -0.026578125 -0.00125 -0.026578125 2.52587523623e-07
242 1 -0.026578125 -0.00125 -0.025396875 0.000203624117328
243 1 -0.026578125 -0.00125 -0.024215625 0.00724133330302
244 1 -0.026578125 -0.00125 -0.023034375 0.0187026692579
245 1 -0.026578125 -0.00125 -0.021853125 0.00154813293271
246 1 -0.026578125 -0.00125 -0.020671875 0.00349873817525
247 1 -0.026578125 -0.00125 -0.019490625 0.00135884225358
248 1 -0.026578125 -0.00125 -0.018309375 1.28754471296e-08
249 1 -0.026578125 -0.00125 -0.017128125 0.0
250 1 -0.026578125 -0.00125 -0.015946875 1.28754471296e-08
251 1 -0.026578125 -0.00125 -0.014765625 0.0475687247245
252 1 -0.026578125 -0.00125 -0.013584375 0.460842111661
253 1 -0.026578125 -0.00125 -0.012403125 0.167516386218
254 1 -0.026578125 -0.00125 -0.011221875 0.00118682600863
255 1 -0.026578125 -0.00125 -0.010040625 0.0
256 1 -0.026578125 -0.00125 -0.008859375 0.0
257 1 -0.026578125 -0.00125 -0.007678125 0.0
258 1 -0.026578125 -0.00125 -0.006496875 0.0
259 1 -0.026578125 -0.00125 -0.005315625 0.0
260 1 -0.026578125 -0.00125 -0.004134375 0.0
261 1 -0.026578125 -0.00125 -0.002953125 0.0
262 1 -0.026578125 -0.00125 -0.001771875 3.14925560351e-13
263 1 -0.026578125 -0.00125 -0.000590625 7.6989341285e-05
264 1 -0.026578125 -0.00125 0.000590625 0.000310993047819
265 1 -0.026578125 -0.00125 0.001771875 0.000255126043584
266 1 -0.026578125 -0.00125 0.002953125 1.5837818957e-05
267 1 -0.026578125 -0.00125 0.004134375 1.74014005978e-11
268 1 -0.026578125 -0.00125 0.005315625 0.0
269 1 -0.026578125 -0.00125 0.006496875 0.0
270 1 -0.026578125 -0.00125 0.007678125 0.0
271 1 -0.026578125 -0.00125 0.008859375 0.0
272 1 -0.026578125 -0.00125 0.010040625 0.0
273 1 -0.026578125 -0.00125 0.011221875 0.0
274 1 -0.026578125 -0.00125 0.012403125 0.0
275 1 -0.026578125 -0.00125 0.013584375 0.0
276 1 -0.026578125 -0.00125 0.014765625 0.00154813293271
277 1 -0.026578125 -0.00125 0.015946875 0.277980204193
278 1 -0.026578125 -0.00125 0.017128125 0.306751214506
279 1 -0.026578125 -0.00125 0.018309375 0.00284458672872
280 1 -0.026578125 -0.00125 0.019490625 0.000126658700522
281 1 -0.026578125 -0.00125 0.020671875 0.000126658700522
282 1 -0.026578125 -0.00125 0.021853125 1.28754471296e-08
283 1 -0.026578125 -0.00125 0.023034375 3.14925560351e-13
284 1 -0.026578125 -0.00125 0.024215625 4.7084399721e-11
285 1 -0.026578125 -0.00125 0.025396875 1.27653918126e-20
286 1 -0.026578125 -0.00125 0.026578125 0.0
287 1 -0.025396875 -0.00125 -0.026578125 6.42534788816e-29
288 1 -0.025396875 -0.00125 -0.025396875 0.00668184101894
289 1 -0.025396875 -0.00125 -0.024215625 0.0138696939255
290 1 -0.025396875 -0.00125 -0.023034375 0.000126658700522
291 1 -0.025396875 -0.00125 -0.021853125 0.000126658700522
292 1 -0.025396875 -0.00125 -0.020671875 0.000126658700522
293 1 -0.025396875 -0.00125 -0.019490625 0.00284458672872
294 1 -0.025396875 -0.00125 -0.018309375 0.000126658700522
295 1 -0.025396875 -0.00125 -0.017128125 0.000126658700522
296 1 -0.025396875 -0.00125 -0.015946875 0.000126658700522
297 1 -0.025396875 -0.00125 -0.014765625 6.01557630165e-07
298 1 -0.025396875 -0.00125 -0.013584375 0.292342717184
299 1 -0.025396875 -0.00125 -0.012403125 0.0216537239851
300 1 -0.025396875 -0.00125 -0.011221875 6.01557630165e-07
301 1 -0.025396875 -0.00125 -0.010040625 0.0
302 1 -0.025396875 -0.00125 -0.008859375 0.0
303 1 -0.025396875 -0.00125 -0.007678125 0.0
304 1 -0.025396875 -0.00125 -0.006496875 1.22156214432e-15
305 1 -0.025396875 -0.00125 -0.005315625 6.01557630165e-07
306 1 -0.025396875 -0.00125 -0.004134375 0.00474644221021
307 1 -0.025396875 -0.00125 -0.002953125 0.00154812961495
308 1 -0.025396875 -0.00125 -0.001771875 0.00154812961495
309 1 -0.025396875 -0.00125 -0.000590625 0.000891017573599
310 1 -0.025396875 -0.00125 0.000590625 1.74019667629e-11
311 1 -0.025396875 -0.00125 0.001771875 1.74019667629e-11
312 1 -0.025396875 -0.00125 0.002953125 0.0
313 1 -0.025396875 -0.00125 0.004134375 1.22156214432e-15
314 1 -0.025396875 -0.00125 0.005315625 0.0
315 1 -0.025396875 -0.00125 0.006496875 1.40785443464e-30
316 1 -0.025396875 -0.00125 0.007678125 1.22156214432e-15
317 1 -0.025396875 -0.00125 0.008859375 0.0
318 1 -0.025396875 -0.00125 0.010040625 0.0
319 1 -0.025396875 -0.00125 0.011221875 0.0
320 1 -0.025396875 -0.00125 0.012403125 0.0
321 1 -0.025396875 -0.00125 0.013584375 1.74014005978e-11
322 1 -0.025396875 -0.00125 0.014765625 0.0243767952624
323 1 -0.025396875 -0.00125 0.015946875 0.522376508072
324 1 -0.025396875 -0.00125 0.017128125 0.40155560828
325 1 -0.025396875 -0.00125 0.018309375 0.00474645121499
326 1 -0.025396875 -0.00125 0.019490625 2.79378975481e-22
327 1 -0.025396875 -0.00125 0.020671875 0.0
328 1 -0.025396875 -0.00125 0.021853125 1.22156214432e-15
329 1 -0.025396875 -0.00125 0.023034375 0.000126658700522
330 1 -0.025396875 -0.00125 0.024215625 0.00474645121499
331 1 -0.025396875 -0.00125 0.025396875 0.000126658700522
332 1 -0.025396875 -0.00125 0.026578125 0.0
333 1 -0.024215625 -0.00125 -0.027759375 0.0
334 1 -0.024215625 -0.00125 -0.026578125 6.01551003484e-07
335 1 -0.024215625 -0.00125 -0.025396875 0.0999860491522
336 1 -0.024215625 -0.00125 -0.024215625 0.0138696939255
337 1 -0.024215625 -0.00125 -0.023034375 0.00474645121499
338 1 -0.024215625 -0.00125 -0.021853125 0.000126658700522
339 1 -0.024215625 -0.00125 -0.020671875 1.74019667629e-11
340 1 -0.024215625 -0.00125 -0.019490625 0.00284458672872
341 1 -0.024215625 -0.00125 -0.018309375 0.000126658700522
342 1 -0.024215625 -0.00125 -0.017128125 0.000126658700522
343 1 -0.024215625 -0.00125 -0.015946875 0.000126658700522
344 1 -0.024215625 -0.00125 -0.014765625 1.74019667629e-11
345 1 -0.024215625 -0.00125 -0.013584375 0.205179062488
346 1 -0.024215625 -0.00125 -0.012403125 0.00154813293271
347 1 -0.024215625 -0.00125 -0.011221875 1.74019667629e-11
348 1 -0.024215625 -0.00125 -0.010040625 0.0
349 1 -0.024215625 -0.00125 -0.008859375 0.0
350 1 -0.024215625 -0.00125 -0.007678125 0.0
351 1 -0.024215625 -0.00125 -0.006496875 0.000535660654302
352 1 -0.024215625 -0.00125 -0.005315625 0.000126657572948
353 1 -0.024215625 -0.00125 -0.004134375 0.0293069224194
354 1 -0.024215625 -0.00125 -0.002953125 0.0138696939255
355 1 -0.024215625 -0.00125 -0.001771875 0.0243767756543
356 1 -0.024215625 -0.00125 -0.000590625 0.0243767756543
357 1 -0.024215625 -0.00125 0.000590625 0.0267810609157
358 1 -0.024215625 -0.00125 0.001771875 0.0999860491522
359 1 -0.024215625 -0.00125 0.002953125 0.00474645121499
360 1 -0.024215625 -0.00125 0.004134375 0.000891017573599
361 1 -0.024215625 -0.00125 0.005315625 6.01557630165e-07
362 1 -0.024215625 -0.00125 0.006496875 0.000535662176186
363 1 -0.024215625 -0.00125 0.007678125 6.01557630165e-07
364 1 -0.024215625 -0.00125 0.008859375 0.0
365 1 -0.024215625 -0.00125 0.010040625 0.0
366 1 -0.024215625 -0.00125 0.011221875 0.0
367 1 -0.024215625 -0.00125 0.012403125 0.0
368 1 -0.024215625 -0.00125 0.013584375 1.28752206004e-08
369 1 -0.024215625 -0.00125 0.014765625 0.143332385117
370 1 -0.024215625 -0.00125 0.015946875 0.529089062167
371 1 -0.024215625 -0.00125 0.017128125 0.470910984646
372 1 -0.024215625 -0.00125 0.018309375 4.52220221462e-06
373 1 -0.024215625 -0.00125 0.019490625 3.14925560351e-13
374 1 -0.024215625 -0.00125 0.020671875 0.000126658700522
375 1 -0.024215625 -0.00125 0.021853125 0.000126658700522
376 1 -0.024215625 -0.00125 0.023034375 0.000891023127979
377 1 -0.024215625 -0.00125 0.024215625 0.0138696939255
378 1 -0.024215625 -0.00125 0.025396875 0.0138696939255
379 1 -0.024215625 -0.00125 0.026578125 0.00145238155464
380 1 -0.024215625 -0.00125 0.027759375 0.000455413315469
381 1 -0.023034375 -0.00125 -0.027759375 0.0
382 1 -0.023034375 -0.00125 -0.026578125 0.000126657322377
383 1 -0.023034375 -0.00125 -0.025396875 0.186171540908
384 1 -0.023034375 -0.00125 -0.024215625 0.0698876476892
385 1 -0.023034375 -0.00125 -0.023034375 0.0138696939255
386 1 -0.023034375 -0.00125 -0.021853125 0.00154813293271
387 1 -0.023034375 -0.00125 -0.020671875 1.74019667629e-11
388 1 -0.023034375 -0.00125 -0.019490625 0.00284458672872
389 1 -0.023034375 -0.00125 -0.018309375 0.000126658700522
390 1 -0.023034375 -0.00125 -0.017128125 0.0138696939255
391 1 -0.023034375 -0.00125 -0.015946875 0.000126658700522
392 1 -0.023034375 -0.00125 -0.014765625 0.0
393 1 -0.023034375 -0.00125 -0.013584375 0.258189902415
394 1 -0.023034375 -0.00125 -0.012403125 0.000126658700522
395 1 -0.023034375 -0.00125 -0.011221875 1.22156214432e-15
396 1 -0.023034375 -0.00125 -0.010040625 0.000126658700522
397 1 -0.023034375 -0.00125 -0.008859375 4.42606186288e-05
398 1 -0.023034375 -0.00125 -0.007678125 0.00668184101894
399 1 -0.023034375 -0.00125 -0.006496875 0.0844389999037
400 1 -0.023034375 -0.00125 -0.005315625 0.00474644221021
401 1 -0.023034375 -0.00125 -0.004134375 0.000126657572948
402 1 -0.023034375 -0.00125 -0.002953125 4.52227625942e-06
403 1 -0.023034375 -0.00125 -0.001771875 0.000126658700522
404 1 -0.023034375 -0.00125 -0.000590625 0.00668182974929
405 1 -0.023034375 -0.00125 0.000590625 0.095575355231
406 1 -0.023034375 -0.00125 0.001771875 0.263674497482
407 1 -0.023034375 -0.00125 0.002953125 0.298987939022
408 1 -0.023034375 -0.00125 0.004134375 0.123928325831
409 1 -0.023034375 -0.00125 0.005315625 0.114532075754
410 1 -0.023034375 -0.00125 0.006496875 0.095575355231
411 1 -0.023034375 -0.00125 0.007678125 0.0293069007767
412 1 -0.023034375 -0.00125 0.008859375 0.000126658700522
413 1 -0.023034375 -0.00125 0.010040625 1.22156214432e-15
414 1 -0.023034375 -0.00125 0.011221875 1.74019667629e-11
415 1 -0.023034375 -0.00125 0.012403125 6.01557630165e-07
416 1 -0.023034375 -0.00125 0.013584375 7.02309649834e-08
417 1 -0.023034375 -0.00125 0.014765625 0.000891017573599
418 1 -0.023034375 -0.00125 0.015946875 0.224469737872
419 1 -0.023034375 -0.00125 0.017128125 0.186171540908
420 1 -0.023034375 -0.00125 0.018309375 4.52220221462e-06
421 1 -0.023034375 -0.00125 0.019490625 0.000535662176186
422 1 -0.023034375 -0.00125 0.020671875 0.0138696939255
423 1 -0.023034375 -0.00125 0.021853125 0.0293069007767
424 1 -0.023034375 -0.00125 0.023034375 0.0138696939255
425 1 -0.023034375 -0.00125 0.024215625 0.0138696939255
426 1 -0.023034375 -0.00125 0.025396875 0.00474645121499
427 1 -0.023034375 -0.00125 0.026578125 0.000126658700522
428 1 -0.023034375 -0.00125 0.027759375 0.0418564289367
429 1 -0.021853125 -0.00125 -0.028940625 0.0
430 1 -0.021853125 -0.00125 -0.027759375 0.0
431 1 -0.021853125 -0.00125 -0.026578125 7.02299466978e-08
432 1 -0.021853125 -0.00125 -0.025396875 0.0622852495443
433 1 -0.021853125 -0.00125 -0.024215625 0.196692230435
434 1 -0.021853125 -0.00125 -0.023034375 0.123928325831
435 1 -0.021853125 -0.00125 -0.021853125 0.00154813293271
436 1 -0.021853125 -0.00125 -0.020671875 0.000126658700522
437 1 -0.021853125 -0.00125 -0.019490625 0.00284458672872
438 1 -0.021853125 -0.00125 -0.018309375 0.0138696939255
439 1 -0.021853125 -0.00125 -0.017128125 0.0138696939255
440 1 -0.021853125 -0.00125 -0.015946875 0.000126658700522
441 1 -0.021853125 -0.00125 -0.014765625 4.52220221462e-06
442 1 -0.021853125 -0.00125 -0.013584375 0.43622941898
443 1 -0.021853125 -0.00125 -0.012403125 0.0243767756543
444 1 -0.021853125 -0.00125 -0.011221875 0.000299132858986
445 1 -0.021853125 -0.00125 -0.010040625 0.0482287944365
446 1 -0.021853125 -0.00125 -0.008859375 0.159358746116
447 1 -0.021853125 -0.00125 -0.007678125 0.27026908404
448 1 -0.021853125 -0.00125 -0.006496875 0.21372123369
449 1 -0.021853125 -0.00125 -0.005315625 0.196692716986
450 1 -0.021853125 -0.00125 -0.004134375 0.0622852805866
451 1 -0.021853125 -0.00125 -0.002953125 0.0107214510125
452 1 -0.021853125 -0.00125 -0.001771875 0.000466557301994
453 1 -0.021853125 -0.00125 -0.000590625 0.0698876802493
454 1 -0.021853125 -0.00125 0.000590625 0.123928365601
455 1 -0.021853125 -0.00125 0.001771875 0.186171540908
456 1 -0.021853125 -0.00125 0.002953125 0.14929428164
457 1 -0.021853125 -0.00125 0.004134375 0.224469737872
458 1 -0.021853125 -0.00125 0.005315625 0.488812258104
459 1 -0.021853125 -0.00125 0.006496875 0.361324541927
460 1 -0.021853125 -0.00125 0.007678125 0.252716464147
461 1 -0.021853125 -0.00125 0.008859375 0.292342717184
462 1 -0.021853125 -0.00125 0.010040625 0.0999860491522
463 1 -0.021853125 -0.00125 0.011221875 0.0999860491522
464 1 -0.021853125 -0.00125 0.012403125 0.246165113069
465 1 -0.021853125 -0.00125 0.013584375 0.00349873524201
466 1 -0.021853125 -0.00125 0.014765625 4.52220221462e-06
467 1 -0.021853125 -0.00125 0.015946875 0.224469737872
468 1 -0.021853125 -0.00125 0.017128125 0.186171540908
469 1 -0.021853125 -0.00125 0.018309375 6.01557630165e-07
470 1 -0.021853125 -0.00125 0.019490625 0.0098718633607
471 1 -0.021853125 -0.00125 0.020671875 0.0293069007767
472 1 -0.021853125 -0.00125 0.021853125 0.00474645121499
473 1 -0.021853125 -0.00125 0.023034375 0.00474645121499
474 1 -0.021853125 -0.00125 0.024215625 0.000126658700522
475 1 -0.021853125 -0.00125 0.025396875 0.000126658700522
476 1 -0.021853125 -0.00125 0.026578125 3.14925560351e-13
477 1 -0.021853125 -0.00125 0.027759375 0.0
478 1 -0.021853125 -0.00125 0.028940625 2.52587523623e-07
479 1 -0.020671875 -0.00125 -0.030121875 0.0
480 1 -0.020671875 -0.00125 -0.028940625 0.0
481 1 -0.020671875 -0.00125 -0.027759375 0.0
482 1 -0.020671875 -0.00125 -0.026578125 0.0
483 1 -0.020671875 -0.00125 -0.025396875 4.52227625942e-06
484 1 -0.020671875 -0.00125 -0.024215625 0.0999860491522
485 1 -0.020671875 -0.00125 -0.023034375 0.361324541927
486 1 -0.020671875 -0.00125 -0.021853125 0.123928325831
487 1 -0.020671875 -0.00125 -0.020671875 6.01557630165e-07
488 1 -0.020671875 -0.00125 -0.019490625 0.00349873817525
489 1 -0.020671875 -0.00125 -0.018309375 0.0138696939255
490 1 -0.020671875 -0.00125 -0.017128125 0.0138696939255
491 1 -0.020671875 -0.00125 -0.015946875 0.00154813293271
492 1 -0.020671875 -0.00125 -0.014765625 0.0243767756543
493 1 -0.020671875 -0.00125 -0.013584375 0.48545573937
494 1 -0.020671875 -0.00125 -0.012403125 0.343471904739
495 1 -0.020671875 -0.00125 -0.011221875 0.123928365601
496 1 -0.020671875 -0.00125 -0.010040625 0.133535038668
497 1 -0.020671875 -0.00125 -0.008859375 0.0999860491522
498 1 -0.020671875 -0.00125 -0.007678125 0.224469737872
499 1 -0.020671875 -0.00125 -0.006496875 0.210511756665
500 1 -0.020671875 -0.00125 -0.005315625 0.263674497482
501 1 -0.020671875 -0.00125 -0.004134375 0.310081568404
502 1 -0.020671875 -0.00125 -0.002953125 0.368025128148
503 1 -0.020671875 -0.00125 -0.001771875 0.252716464147
504 1 -0.020671875 -0.00125 -0.000590625 0.368025128148
505 1 -0.020671875 -0.00125 0.000590625 0.330099489909
506 1 -0.020671875 -0.00125 0.001771875 0.21372123369
507 1 -0.020671875 -0.00125 0.002953125 0.196692230435
508 1 -0.020671875 -0.00125 0.004134375 0.14929428164
509 1 -0.020671875 -0.00125 0.005315625 0.551464650233
510 1 -0.020671875 -0.00125 0.006496875 0.332326836347
511 1 -0.020671875 -0.00125 0.007678125 0.091233852548
512 1 -0.020671875 -0.00125 0.008859375 0.51118821003
513 1 -0.020671875 -0.00125 0.010040625 0.558176892949
514 1 -0.020671875 -0.00125 0.011221875 0.224469737872
515 1 -0.020671875 -0.00125 0.012403125 0.332327069371
516 1 -0.020671875 -0.00125 0.013584375 0.186171278084
517 1 -0.020671875 -0.00125 0.014765625 0.0698876476892
518 1 -0.020671875 -0.00125 0.015946875 0.40155560828
519 1 -0.020671875 -0.00125 0.017128125 0.252716464147
520 1 -0.020671875 -0.00125 0.018309375 0.000126658700522
521 1 -0.020671875 -0.00125 0.019490625 0.0207856853608
522 1 -0.020671875 -0.00125 0.020671875 0.0138696939255
523 1 -0.020671875 -0.00125 0.021853125 0.00474645121499
524 1 -0.020671875 -0.00125 0.023034375 0.000126658700522
525 1 -0.020671875 -0.00125 0.024215625 6.01557630165e-07
526 1 -0.020671875 -0.00125 0.025396875 0.0
527 1 -0.020671875 -0.00125 0.026578125 2.79378975481e-22
528 1 -0.020671875 -0.00125 0.027759375 1.74019667629e-11
529 1 -0.020671875 -0.00125 0.028940625 0.0
530 1 -0.020671875 -0.00125 0.030121875 0.0
531 1 -0.019490625 -0.00125 -0.031303125 0.0
532 1 -0.019490625 -0.00125 -0.030121875 0.0
533 1 -0.019490625 -0.00125 -0.028940625 0.0
534 1 -0.019490625 -0.00125 -0.027759375 0.0
535 1 -0.019490625 -0.00125 -0.026578125 2.52916021224e-09
536 1 -0.019490625 -0.00125 -0.025396875 0.00198208350256
537 1 -0.019490625 -0.00125 -0.024215625 0.0869648445884
538 1 -0.019490625 -0.00125 -0.023034375 0.17059797986
539 1 -0.019490625 -0.00125 -0.021853125 0.144321573665
540 1 -0.019490625 -0.00125 -0.020671875 0.167516386218
541 1 -0.019490625 -0.00125 -0.019490625 0.0554099770984
542 1 -0.019490625 -0.00125 -0.018309375 0.0364315046602
543 1 -0.019490625 -0.00125 -0.017128125 0.0138696939255
544 1 -0.019490625 -0.00125 -0.015946875 0.0138696939255
545 1 -0.019490625 -0.00125 -0.014765625 0.0156289295152
546 1 -0.019490625 -0.00125 -0.013584375 0.150293774683
547 1 -0.019490625 -0.00125 -0.012403125 0.662101997425
548 1 -0.019490625 -0.00125 -0.011221875 0.612978895726
549 1 -0.019490625 -0.00125 -0.010040625 0.263674773127
550 1 -0.019490625 -0.00125 -0.008859375 0.111756940705
551 1 -0.019490625 -0.00125 -0.007678125 0.0187026777134
552 1 -0.019490625 -0.00125 -0.006496875 0.00296804482473
553 1 -0.019490625 -0.00125 -0.005315625 0.0424422168447
554 1 -0.019490625 -0.00125 -0.004134375 0.0999861979185