ITEM: TIMESTEP
0
ITEM: NUMBER OF ATOMS
3080
ITEM: BOX BOUNDS ss ss ss
-3.7007399999999996e-02 3.7007399999999996e-02
-2.0002499999999999e-03 2.5000000000000004e-07
-3.7007399999999996e-02 3.7007399999999996e-02
ITEM: ATOMS id type x y z c_1
0 1 -0.037209375 -0.00125 -0.000590625 0.141752744525
1 1 -0.036028125 -0.00125 -0.007678125 0.0
2 1 -0.036028125 -0.00125 -0.006496875 0.0
3 1 -0.036028125 -0.00125 -0.005315625 0.0
4 1 -0.036028125 -0.00125 -0.004134375 0.0
5 1 -0.036028125 -0.00125 -0.002953125 0.0
6 1 -0.036028125 -0.00125 -0.001771875 0.0878124945944
7 1 -0.036028125 -0.00125 -0.000590625 0.0894108870387
8 1 -0.036028125 -0.00125 0.000590625 0.135201527912
9 1 -0.036028125 -0.00125 0.001771875 0.283498095333
10 1 -0.036028125 -0.00125 0.002953125 3.70458005324e-08
11 1 -0.036028125 -0.00125 0.004134375 0.0
12 1 -0.036028125 -0.00125 0.005315625 0.0
13 1 -0.036028125 -0.00125 0.006496875 0.0
14 1 -0.036028125 -0.00125 0.007678125 0.000455413315469
15 1 -0.034846875 -0.00125 -0.011221875 0.0
16 1 -0.034846875 -0.00125 -0.010040625 0.0
17 1 -0.034846875 -0.00125 -0.008859375 0.0
18 1 -0.034846875 -0.00125 -0.007678125 0.0
19 1 -0.034846875 -0.00125 -0.006496875 0.0
20 1 -0.034846875 -0.00125 -0.005315625 0.0
21 1 -0.034846875 -0.00125 -0.004134375 0.0
22 1 -0.034846875 -0.00125 -0.002953125 1.74019667629e-11
23 1 -0.034846875 -0.00125 -0.001771875 0.00668184101894
24 1 -0.034846875 -0.00125 -0.000590625 1.58379826604e-05
25 1 -0.034846875 -0.00125 0.000590625 0.0999860491522
26 1 -0.034846875 -0.00125 0.001771875 0.40155560828
27 1 -0.034846875 -0.00125 0.002953125 0.14929428164
28 1 -0.034846875 -0.00125 0.004134375 0.00154813293271
29 1 -0.034846875 -0.00125 0.005315625 0.000466557301994
30 1 -0.034846875 -0.00125 0.006496875 0.00855160113593
31 1 -0.034846875 -0.00125 0.007678125 0.0328185601249
32 1 -0.034846875 -0.00125 0.008859375 0.19657201457
33 1 -0.034846875 -0.00125 0.010040625 0.209443388453
34 1 -0.034846875 -0.00125 0.011221875 0.0154732620181
35 1 -0.033665625 -0.00125 -0.013584375 5.72529236729e-05
36 1 -0.033665625 -0.00125 -0.012403125 0.0
37 1 -0.033665625 -0.00125 -0.011221875 0.0
38 1 -0.033665625 -0.00125 -0.010040625 0.0
39 1 -0.033665625 -0.00125 -0.008859375 0.0
40 1 -0.033665625 -0.00125 -0.007678125 0.0
41 1 -0.033665625 -0.00125 -0.006496875 0.0
42 1 -0.033665625 -0.00125 -0.005315625 0.0
43 1 -0.033665625 -0.00125 -0.004134375 0.0
44 1 -0.033665625 -0.00125 -0.002953125 4.52220221462e-06
45 1 -0.033665625 -0.00125 -0.001771875 0.00154813293271
46 1 -0.033665625 -0.00125 -0.000590625 0.00037578590857
47 1 -0.033665625 -0.00125 0.000590625 0.14929428164
48 1 -0.033665625 -0.00125 0.001771875 0.712081418436
49 1 -0.033665625 -0.00125 0.002953125 0.482099221396
50 1 -0.033665625 -0.00125 0.004134375 0.241806908695
51 1 -0.033665625 -0.00125 0.005315625 0.0443323240644
52 1 -0.033665625 -0.00125 0.006496875 0.119202705758
53 1 -0.033665625 -0.00125 0.007678125 0.511187741896
54 1 -0.033665625 -0.00125 0.008859375 0.321195978177
55 1 -0.033665625 -0.00125 0.010040625 0.252716464147
56 1 -0.033665625 -0.00125 0.011221875 0.057607006066
57 1 -0.033665625 -0.00125 0.012403125 0.182529172436
58 1 -0.033665625 -0.00125 0.013584375 0.11083682129
59 1 -0.032484375 -0.00125 -0.018309375 0.0
60 1 -0.032484375 -0.00125 -0.017128125 0.0
61 1 -0.032484375 -0.00125 -0.015946875 0.0
62 1 -0.032484375 -0.00125 -0.014765625 8.50218305249e-07
63 1 -0.032484375 -0.00125 -0.013584375 0.0
64 1 -0.032484375 -0.00125 -0.012403125 0.0
65 1 -0.032484375 -0.00125 -0.011221875 0.0
66 1 -0.032484375 -0.00125 -0.010040625 0.0
67 1 -0.032484375 -0.00125 -0.008859375 0.0
68 1 -0.032484375 -0.00125 -0.007678125 0.0
69 1 -0.032484375 -0.00125 -0.006496875 0.0
70 1 -0.032484375 -0.00125 -0.005315625 0.0
71 1 -0.032484375 -0.00125 -0.004134375 0.0
72 1 -0.032484375 -0.00125 -0.002953125 2.79378975481e-22
73 1 -0.032484375 -0.00125 -0.001771875 0.0
74 1 -0.032484375 -0.00125 -0.000590625 1.05577188087e-06
75 1 -0.032484375 -0.00125 0.000590625 0.0293069115981
76 1 -0.032484375 -0.00125 0.001771875 0.249438537977
77 1 -0.032484375 -0.00125 0.002953125 0.312303162939
78 1 -0.032484375 -0.00125 0.004134375 0.286812771634
79 1 -0.032484375 -0.00125 0.005315625 0.0622852495443
80 1 -0.032484375 -0.00125 0.006496875 0.0117675757918
81 1 -0.032484375 -0.00125 0.007678125 0.0207856943371
82 1 -0.032484375 -0.00125 0.008859375 0.0167441671843
83 1 -0.032484375 -0.00125 0.010040625 0.0869648445884
84 1 -0.032484375 -0.00125 0.011221875 0.149294323427
85 1 -0.032484375 -0.00125 0.012403125 0.43622941898
86 1 -0.032484375 -0.00125 0.013584375 0.258077752576
87 1 -0.032484375 -0.00125 0.014765625 0.0566348422752
88 1 -0.032484375 -0.00125 0.015946875 0.00257344356239
89 1 -0.032484375 -0.00125 0.017128125 0.0237387334688
90 1 -0.032484375 -0.00125 0.018309375 0.00920066229086
91 1 -0.031303125 -0.00125 -0.019490625 0.0
92 1 -0.031303125 -0.00125 -0.018309375 0.0
93 1 -0.031303125 -0.00125 -0.017128125 0.0
94 1 -0.031303125 -0.00125 -0.015946875 0.0
95 1 -0.031303125 -0.00125 -0.014765625 0.0
96 1 -0.031303125 -0.00125 -0.013584375 0.0
97 1 -0.031303125 -0.00125 -0.012403125 0.0
98 1 -0.031303125 -0.00125 -0.011221875 0.0
99 1 -0.031303125 -0.00125 -0.010040625 0.0
100 1 -0.031303125 -0.00125 -0.008859375 0.0
101 1 -0.031303125 -0.00125 -0.007678125 0.0
102 1 -0.031303125 -0.00125 -0.006496875 0.0
103 1 -0.031303125 -0.00125 -0.005315625 0.0
104 1 -0.031303125 -0.00125 -0.004134375 0.0
105 1 -0.031303125 -0.00125 -0.002953125 0.0
106 1 -0.031303125 -0.00125 -0.001771875 0.0
107 1 -0.031303125 -0.00125 -0.000590625 0.00284458418363
108 1 -0.031303125 -0.00125 0.000590625 0.196692230435
109 1 -0.031303125 -0.00125 0.001771875 0.252716967449
110 1 -0.031303125 -0.00125 0.002953125 0.149294323427
111 1 -0.031303125 -0.00125 0.004134375 0.0509111013046
112 1 -0.031303125 -0.00125 0.005315625 0.000299131636816
113 1 -0.031303125 -0.00125 0.006496875 0.0
114 1 -0.031303125 -0.00125 0.007678125 0.0
115 1 -0.031303125 -0.00125 0.008859375 0.0
116 1 -0.031303125 -0.00125 0.010040625 1.74019667629e-11
117 1 -0.031303125 -0.00125 0.011221875 0.000299131636816
118 1 -0.031303125 -0.00125 0.012403125 0.372493358291
119 1 -0.031303125 -0.00125 0.013584375 0.066041103006
120 1 -0.031303125 -0.00125 0.014765625 0.123928325831
121 1 -0.031303125 -0.00125 0.015946875 0.0138696939255
122 1 -0.031303125 -0.00125 0.017128125 0.123928325831
123 1 -0.031303125 -0.00125 0.018309375 0.219782120575
124 1 -0.031303125 -0.00125 0.019490625 0.0154733453587
125 1 -0.030121875 -0.00125 -0.020671875 0.0
126 1 -0.030121875 -0.00125 -0.019490625 0.0
127 1 -0.030121875 -0.00125 -0.018309375 0.0
128 1 -0.030121875 -0.00125 -0.017128125 0.0
129 1 -0.030121875 -0.00125 -0.015946875 0.0
130 1 -0.030121875 -0.00125 -0.014765625 0.0
131 1 -0.030121875 -0.00125 -0.013584375 0.0
132 1 -0.030121875 -0.00125 -0.012403125 0.0
133 1 -0.030121875 -0.00125 -0.011221875 0.0
134 1 -0.030121875 -0.00125 -0.010040625 0.0
135 1 -0.030121875 -0.00125 -0.008859375 0.0
136 1 -0.030121875 -0.00125 -0.007678125 0.0
137 1 -0.030121875 -0.00125 -0.006496875 0.0
138 1 -0.030121875 -0.00125 -0.005315625 0.0
139 1 -0.030121875 -0.00125 -0.004134375 0.0
140 1 -0.030121875 -0.00125 -0.002953125 0.0
141 1 -0.030121875 -0.00125 -0.001771875 0.0
142 1 -0.030121875 -0.00125 -0.000590625 0.00601515493578
143 1 -0.030121875 -0.00125 0.000590625 0.0258046073149
144 1 -0.030121875 -0.00125 0.001771875 0.00906545268845
145 1 -0.030121875 -0.00125 0.002953125 0.0509111439139
146 1 -0.030121875 -0.00125 0.004134375 4.52220221462e-06
147 1 -0.030121875 -0.00125 0.005315625 0.0
148 1 -0.030121875 -0.00125 0.006496875 0.0
149 1 -0.030121875 -0.00125 0.007678125 0.0
150 1 -0.030121875 -0.00125 0.008859375 0.0
151 1 -0.030121875 -0.00125 0.010040625 0.0
152 1 -0.030121875 -0.00125 0.011221875 0.000299132858986
153 1 -0.030121875 -0.00125 0.012403125 0.332326556717
154 1 -0.030121875 -0.00125 0.013584375 0.0335973715894
155 1 -0.030121875 -0.00125 0.014765625 0.0
156 1 -0.030121875 -0.00125 0.015946875 6.01557630165e-07
157 1 -0.030121875 -0.00125 0.017128125 0.0381872278205
158 1 -0.030121875 -0.00125 0.018309375 0.123928325831
159 1 -0.030121875 -0.00125 0.019490625 0.144875413733
160 1 -0.030121875 -0.00125 0.020671875 0.00466864259094
161 1 -0.028940625 -0.00125 -0.021853125 0.0
162 1 -0.028940625 -0.00125 -0.020671875 0.0
163 1 -0.028940625 -0.00125 -0.019490625 2.79378975481e-22
164 1 -0.028940625 -0.00125 -0.018309375 0.00154812961495
165 1 -0.028940625 -0.00125 -0.017128125 1.74019667629e-11
166 1 -0.028940625 -0.00125 -0.015946875 0.0
167 1 -0.028940625 -0.00125 -0.014765625 0.0
168 1 -0.028940625 -0.00125 -0.013584375 0.0
169 1 -0.028940625 -0.00125 -0.012403125 0.0
170 1 -0.028940625 -0.00125 -0.011221875 0.0
171 1 -0.028940625 -0.00125 -0.010040625 0.0
172 1 -0.028940625 -0.00125 -0.008859375 0.0
173 1 -0.028940625 -0.00125 -0.007678125 0.0
174 1 -0.028940625 -0.00125 -0.006496875 0.0
175 1 -0.028940625 -0.00125 -0.005315625 0.0
176 1 -0.028940625 -0.00125 -0.004134375 0.0
177 1 -0.028940625 -0.00125 -0.002953125 1.22156214432e-15
178 1 -0.028940625 -0.00125 -0.001771875 1.22156214432e-15
179 1 -0.028940625 -0.00125 -0.000590625 1.28752206004e-08
180 1 -0.028940625 -0.00125 0.000590625 0.000299131636816
181 1 -0.028940625 -0.00125 0.001771875 1.74019667629e-11
182 1 -0.028940625 -0.00125 0.002953125 1.74019667629e-11
183 1 -0.028940625 -0.00125 0.004134375 0.0
184 1 -0.028940625 -0.00125 0.005315625 0.0
185 1 -0.028940625 -0.00125 0.006496875 0.0
186 1 -0.028940625 -0.00125 0.007678125 0.0
187 1 -0.028940625 -0.00125 0.008859375 0.0
188 1 -0.028940625 -0.00125 0.010040625 0.0
189 1 -0.028940625 -0.00125 0.011221875 6.01557630165e-07
190 1 -0.028940625 -0.00125 0.012403125 0.321195978177
191 1 -0.028940625 -0.00125 0.013584375 0.0660410234715
192 1 -0.028940625 -0.00125 0.014765625 0.0
193 1 -0.028940625 -0.00125 0.015946875 6.01557630165e-07
194 1 -0.028940625 -0.00125 0.017128125 0.00668182974929
195 1 -0.028940625 -0.00125 0.018309375 0.0138696939255
196 1 -0.028940625 -0.00125 0.019490625 0.292342995029
197 1 -0.028940625 -0.00125 0.020671875 0.219782120575
198 1 -0.028940625 -0.00125 0.021853125 0.0904523633156
199 1 -0.027759375 -0.00125 -0.024215625 0.0
200 1 -0.027759375 -0.00125 -0.023034375 0.0
201 1 -0.027759375 -0.00125 -0.021853125 0.0
202 1 -0.027759375 -0.00125 -0.020671875 0.0
203 1 -0.027759375 -0.00125 -0.019490625 1.58379826604e-05
204 1 -0.027759375 -0.00125 -0.018309375 0.0293069007767
205 1 -0.027759375 -0.00125 -0.017128125 0.0509111013046
206 1 -0.027759375 -0.00125 -0.015946875 0.000891023127979
207 1 -0.027759375 -0.00125 -0.014765625 6.01557630165e-07
208 1 -0.027759375 -0.00125 -0.013584375 2.79378975481e-22
209 1 -0.027759375 -0.00125 -0.012403125 0.0
210 1 -0.027759375 -0.00125 -0.011221875 0.0
211 1 -0.027759375 -0.00125 -0.010040625 0.0
212 1 -0.027759375 -0.00125 -0.008859375 0.0
213 1 -0.027759375 -0.00125 -0.007678125 0.0
214 1 -0.027759375 -0.00125 -0.006496875 0.0
215 1 -0.027759375 -0.00125 -0.005315625 0.0
216 1 -0.027759375 -0.00125 -0.004134375 0.0
217 1 -0.027759375 -0.00125 -0.002953125 1.22156214432e-15
218 1 -0.027759375 -0.00125 -0.001771875 0.0
219 1 -0.027759375 -0.00125 -0.000590625 0.0
220 1 -0.027759375 -0.00125 0.000590625 0.0
221 1 -0.027759375 -0.00125 0.001771875 1.22156214432e-15
222 1 -0.027759375 -0.00125 0.002953125 1.22156214432e-15
223 1 -0.027759375 -0.00125 0.004134375 0.0
224 1 -0.027759375 -0.00125 0.005315625 0.0
225 1 -0.027759375 -0.00125 0.006496875 0.0
226 1 -0.027759375 -0.00125 0.007678125 0.0
227 1 -0.027759375 -0.00125 0.008859375 0.0
228 1 -0.027759375 -0.00125 0.010040625 0.0
229 1 -0.027759375 -0.00125 0.011221875 6.01557630165e-07
230 1 -0.027759375 -0.00125 0.012403125 0.224469737872
231 1 -0.027759375 -0.00125 0.013584375 0.0308801942381
232 1 -0.027759375 -0.00125 0.014765625 0.0
233 1 -0.027759375 -0.00125 0.015946875 0.000126658700522
234 1 -0.027759375 -0.00125 0.017128125 0.000126658700522
235 1 -0.027759375 -0.00125 0.018309375 0.00474645121499
236 1 -0.027759375 -0.00125 0.019490625 0.390374294927
237 1 -0.027759375 -0.00125 0.020671875 0.14929428164
238 1 -0.027759375 -0.00125 0.021853125 0.000245540111831
239 1 -0.027759375 -0.00125 0.023034375 0.00106278235535
240 1 -0.027759375 -0.00125 0.024215625 0.0
241 1 -0.026578125 -0.00125 -0.026578125 0.0
242 1 -0.026578125 -0.00125 -0.025396875 0.0
243 1 -0.026578125 -0.00125 -0.024215625 0.0
244 1 -0.026578125 -0.00125 -0.023034375 0.0
245 1 -0.026578125 -0.00125 -0.021853125 0.0
246 1 -0.026578125 -0.00125 -0.020671875 2.79378975481e-22
247 1 -0.026578125 -0.00125 -0.019490625 1.10100190662e-07
248 1 -0.026578125 -0.00125 -0.018309375 0.00118682600863
249 1 -0.026578125 -0.00125 -0.017128125 0.0335972786663
250 1 -0.026578125 -0.00125 -0.015946875 0.238544232212
251 1 -0.026578125 -0.00125 -0.014765625 0.146305587116
252 1 -0.026578125 -0.00125 -0.013584375 4.19822140559e-07
253 1 -0.026578125 -0.00125 -0.012403125 0.0
254 1 -0.026578125 -0.00125 -0.011221875 0.0
255 1 -0.026578125 -0.00125 -0.010040625 0.0
256 1 -0.026578125 -0.00125 -0.008859375 0.0
257 1 -0.026578125 -0.00125 -0.007678125 0.0
258 1 -0.026578125 -0.00125 -0.006496875 4.3702352374e-15
259 1 -0.026578125 -0.00125 -0.005315625 0.016744222721
260 1 -0.026578125 -0.00125 -0.004134375 0.24507451965
261 1 -0.026578125 -0.00125 -0.002953125 0.0698874848889
262 1 -0.026578125 -0.00125 -0.001771875 0.0698875988491
263 1 -0.026578125 -0.00125 -0.000590625 0.172658474079
264 1 -0.026578125 -0.00125 0.000590625 0.163426435735
265 1 -0.026578125 -0.00125 0.001771875 0.111757229879
266 1 -0.026578125 -0.00125 0.002953125 0.0600767714318
267 1 -0.026578125 -0.00125 0.004134375 0.0738215884644
268 1 -0.026578125 -0.00125 0.005315625 0.0738215884644
269 1 -0.026578125 -0.00125 0.006496875 0.0364314804587
270 1 -0.026578125 -0.00125 0.007678125 0.0167441671843
271 1 -0.026578125 -0.00125 0.008859375 0.00625985878742
272 1 -0.026578125 -0.00125 0.010040625 0.0116144863694
273 1 -0.026578125 -0.00125 0.011221875 0.0282820477673
274 1 -0.026578125 -0.00125 0.012403125 0.114531881506
275 1 -0.026578125 -0.00125 0.013584375 0.0960134556112
276 1 -0.026578125 -0.00125 0.014765625 1.60801117159e-09
277 1 -0.026578125 -0.00125 0.015946875 6.01557630165e-07
278 1 -0.026578125 -0.00125 0.017128125 0.00089101923991
279 1 -0.026578125 -0.00125 0.018309375 0.00228022050368
280 1 -0.026578125 -0.00125 0.019490625 0.400437118652
281 1 -0.026578125 -0.00125 0.020671875 0.00284458672872
282 1 -0.026578125 -0.00125 0.021853125 0.0
283 1 -0.026578125 -0.00125 0.023034375 0.0
284 1 -0.026578125 -0.00125 0.024215625 0.0
285 1 -0.026578125 -0.00125 0.025396875 0.0
286 1 -0.026578125 -0.00125 0.026578125 0.0
287 1 -0.025396875 -0.00125 -0.026578125 0.0
288 1 -0.025396875 -0.00125 -0.025396875 0.0
289 1 -0.025396875 -0.00125 -0.024215625 0.0
290 1 -0.025396875 -0.00125 -0.023034375 0.0
291 1 -0.025396875 -0.00125 -0.021853125 1.74019667629e-11
292 1 -0.025396875 -0.00125 -0.020671875 1.74019667629e-11
293 1 -0.025396875 -0.00125 -0.019490625 2.79378975481e-22
294 1 -0.025396875 -0.00125 -0.018309375 0.000126658700522
295 1 -0.025396875 -0.00125 -0.017128125 0.000126658700522
296 1 -0.025396875 -0.00125 -0.015946875 0.00154813293271
297 1 -0.025396875 -0.00125 -0.014765625 0.224469737872
298 1 -0.025396875 -0.00125 -0.013584375 0.0207856853608
299 1 -0.025396875 -0.00125 -0.012403125 0.0
300 1 -0.025396875 -0.00125 -0.011221875 0.0
301 1 -0.025396875 -0.00125 -0.010040625 0.0
302 1 -0.025396875 -0.00125 -0.008859375 0.0
303 1 -0.025396875 -0.00125 -0.007678125 1.22156214432e-15
304 1 -0.025396875 -0.00125 -0.006496875 0.0335973018971
305 1 -0.025396875 -0.00125 -0.005315625 0.186171540908
306 1 -0.025396875 -0.00125 -0.004134375 0.303423296049
307 1 -0.025396875 -0.00125 -0.002953125 0.224469737872
308 1 -0.025396875 -0.00125 -0.001771875 0.123928325831
309 1 -0.025396875 -0.00125 -0.000590625 0.0293069224194
310 1 -0.025396875 -0.00125 0.000590625 0.00987185758727
311 1 -0.025396875 -0.00125 0.001771875 0.123928325831
312 1 -0.025396875 -0.00125 0.002953125 0.203051971158
313 1 -0.025396875 -0.00125 0.004134375 0.139391385346
314 1 -0.025396875 -0.00125 0.005315625 0.13939146749
315 1 -0.025396875 -0.00125 0.006496875 0.227707986464
316 1 -0.025396875 -0.00125 0.007678125 0.241806863156
317 1 -0.025396875 -0.00125 0.008859375 0.27026908404
318 1 -0.025396875 -0.00125 0.010040625 0.0912339065983
319 1 -0.025396875 -0.00125 0.011221875 0.0293069007767
320 1 -0.025396875 -0.00125 0.012403125 0.0175126135393
321 1 -0.025396875 -0.00125 0.013584375 0.0443323240644
322 1 -0.025396875 -0.00125 0.014765625 0.0
323 1 -0.025396875 -0.00125 0.015946875 1.22156214432e-15
324 1 -0.025396875 -0.00125 0.017128125 1.22156214432e-15
325 1 -0.025396875 -0.00125 0.018309375 4.52220221462e-06
326 1 -0.025396875 -0.00125 0.019490625 0.205179062488
327 1 -0.025396875 -0.00125 0.020671875 0.0
328 1 -0.025396875 -0.00125 0.021853125 0.0
329 1 -0.025396875 -0.00125 0.023034375 0.0
330 1 -0.025396875 -0.00125 0.024215625 0.0
331 1 -0.025396875 -0.00125 0.025396875 0.0
332 1 -0.025396875 -0.00125 0.026578125 0.0
333 1 -0.024215625 -0.00125 -0.027759375 0.0
334 1 -0.024215625 -0.00125 -0.026578125 0.0
335 1 -0.024215625 -0.00125 -0.025396875 0.0
336 1 -0.024215625 -0.00125 -0.024215625 0.0
337 1 -0.024215625 -0.00125 -0.023034375 0.00154813293271
338 1 -0.024215625 -0.00125 -0.021853125 0.00154813293271
339 1 -0.024215625 -0.00125 -0.020671875 0.000126658700522
340 1 -0.024215625 -0.00125 -0.019490625 0.000126658700522
341 1 -0.024215625 -0.00125 -0.018309375 1.22156214432e-15
342 1 -0.024215625 -0.00125 -0.017128125 4.52227625942e-06
343 1 -0.024215625 -0.00125 -0.015946875 1.74019667629e-11
344 1 -0.024215625 -0.00125 -0.014765625 0.114532075754
345 1 -0.024215625 -0.00125 -0.013584375 0.0475688073201
346 1 -0.024215625 -0.00125 -0.012403125 6.01557630165e-07
347 1 -0.024215625 -0.00125 -0.011221875 0.01386971523
348 1 -0.024215625 -0.00125 -0.010040625 6.01557630165e-07
349 1 -0.024215625 -0.00125 -0.008859375 6.01557630165e-07
350 1 -0.024215625 -0.00125 -0.007678125 0.0324964072365
351 1 -0.024215625 -0.00125 -0.006496875 0.114532075754
352 1 -0.024215625 -0.00125 -0.005315625 0.133535038668
353 1 -0.024215625 -0.00125 -0.004134375 0.00474645121499
354 1 -0.024215625 -0.00125 -0.002953125 0.00154812961495
355 1 -0.024215625 -0.00125 -0.001771875 0.00154813293271
356 1 -0.024215625 -0.00125 -0.000590625 4.52220221462e-06
357 1 -0.024215625 -0.00125 0.000590625 1.74014005978e-11
358 1 -0.024215625 -0.00125 0.001771875 0.000126657572948
359 1 -0.024215625 -0.00125 0.002953125 0.0347170407724
360 1 -0.024215625 -0.00125 0.004134375 0.0175126135393
361 1 -0.024215625 -0.00125 0.005315625 0.0175125891118
362 1 -0.024215625 -0.00125 0.006496875 0.000126657322377
363 1 -0.024215625 -0.00125 0.007678125 6.01557630165e-07
364 1 -0.024215625 -0.00125 0.008859375 4.52220221462e-06
365 1 -0.024215625 -0.00125 0.010040625 1.74019667629e-11
366 1 -0.024215625 -0.00125 0.011221875 0.0138696939255
367 1 -0.024215625 -0.00125 0.012403125 0.00906545268845
368 1 -0.024215625 -0.00125 0.013584375 0.00284458418363
369 1 -0.024215625 -0.00125 0.014765625 6.01557630165e-07
370 1 -0.024215625 -0.00125 0.015946875 0.0
371 1 -0.024215625 -0.00125 0.017128125 0.0
372 1 -0.024215625 -0.00125 0.018309375 0.00668184101894
373 1 -0.024215625 -0.00125 0.019490625 0.31785993773
374 1 -0.024215625 -0.00125 0.020671875 0.0
375 1 -0.024215625 -0.00125 0.021853125 0.0
376 1 -0.024215625 -0.00125 0.023034375 0.0
377 1 -0.024215625 -0.00125 0.024215625 0.0
378 1 -0.024215625 -0.00125 0.025396875 0.0
379 1 -0.024215625 -0.00125 0.026578125 1.40785443464e-30
380 1 -0.024215625 -0.00125 0.027759375 0.0
381 1 -0.023034375 -0.00125 -0.027759375 0.0
382 1 -0.023034375 -0.00125 -0.026578125 0.0
383 1 -0.023034375 -0.00125 -0.025396875 0.000126658700522
384 1 -0.023034375 -0.00125 -0.024215625 0.0138696939255
385 1 -0.023034375 -0.00125 -0.023034375 0.0138696939255
386 1 -0.023034375 -0.00125 -0.021853125 0.0138696939255
387 1 -0.023034375 -0.00125 -0.020671875 0.0138696939255
388 1 -0.023034375 -0.00125 -0.019490625 0.0122342732579
389 1 -0.023034375 -0.00125 -0.018309375 0.091233852548
390 1 -0.023034375 -0.00125 -0.017128125 0.0443322841124
391 1 -0.023034375 -0.00125 -0.015946875 4.52227625942e-06
392 1 -0.023034375 -0.00125 -0.014765625 0.0243767756543
393 1 -0.023034375 -0.00125 -0.013584375 0.123928564454
394 1 -0.023034375 -0.00125 -0.012403125 0.00668182974929
395 1 -0.023034375 -0.00125 -0.011221875 0.224469737872
396 1 -0.023034375 -0.00125 -0.010040625 0.091233852548
397 1 -0.023034375 -0.00125 -0.008859375 0.0622852805866
398 1 -0.023034375 -0.00125 -0.007678125 0.159358746116
399 1 -0.023034375 -0.00125 -0.006496875 0.0207857392191
400 1 -0.023034375 -0.00125 -0.005315625 0.00154813293271
401 1 -0.023034375 -0.00125 -0.004134375 1.74019667629e-11
402 1 -0.023034375 -0.00125 -0.002953125 0.0
403 1 -0.023034375 -0.00125 -0.001771875 0.0
404 1 -0.023034375 -0.00125 -0.000590625 1.74019667629e-11
405 1 -0.023034375 -0.00125 0.000590625 3.07877004318e-05
406 1 -0.023034375 -0.00125 0.001771875 0.0
407 1 -0.023034375 -0.00125 0.002953125 1.22156214432e-15
408 1 -0.023034375 -0.00125 0.004134375 0.000126657572948
409 1 -0.023034375 -0.00125 0.005315625 4.42606186288e-05
410 1 -0.023034375 -0.00125 0.006496875 1.74019667629e-11
411 1 -0.023034375 -0.00125 0.007678125 0.000299132858986
412 1 -0.023034375 -0.00125 0.008859375 1.74019667629e-11
413 1 -0.023034375 -0.00125 0.010040625 1.74019667629e-11
414 1 -0.023034375 -0.00125 0.011221875 1.74019667629e-11
415 1 -0.023034375 -0.00125 0.012403125 0.000126657572948
416 1 -0.023034375 -0.00125 0.013584375 0.0122342600864
417 1 -0.023034375 -0.00125 0.014765625 4.42606186288e-05
418 1 -0.023034375 -0.00125 0.015946875 1.22156214432e-15
419 1 -0.023034375 -0.00125 0.017128125 0.0
420 1 -0.023034375 -0.00125 0.018309375 0.01386971523
421 1 -0.023034375 -0.00125 0.019490625 0.390374809469
422 1 -0.023034375 -0.00125 0.020671875 0.0
423 1 -0.023034375 -0.00125 0.021853125 0.0
424 1 -0.023034375 -0.00125 0.023034375 1.74019667629e-11
425 1 -0.023034375 -0.00125 0.024215625 0.0
426 1 -0.023034375 -0.00125 0.025396875 1.74019667629e-11
427 1 -0.023034375 -0.00125 0.026578125 6.01557630165e-07
428 1 -0.023034375 -0.00125 0.027759375 0.0
429 1 -0.021853125 -0.00125 -0.028940625 0.0
430 1 -0.021853125 -0.00125 -0.027759375 0.0
431 1 -0.021853125 -0.00125 -0.026578125 1.28754471296e-08
432 1 -0.021853125 -0.00125 -0.025396875 0.000126658700522
433 1 -0.021853125 -0.00125 -0.024215625 0.000126658700522
434 1 -0.021853125 -0.00125 -0.023034375 0.000126658700522
435 1 -0.021853125 -0.00125 -0.021853125 0.000126658700522
436 1 -0.021853125 -0.00125 -0.020671875 0.0138696939255
437 1 -0.021853125 -0.00125 -0.019490625 0.0138696939255
438 1 -0.021853125 -0.00125 -0.018309375 0.0698876476892
439 1 -0.021853125 -0.00125 -0.017128125 0.186171540908
440 1 -0.021853125 -0.00125 -0.015946875 0.0622852495443
441 1 -0.021853125 -0.00125 -0.014765625 0.0175125891118
442 1 -0.021853125 -0.00125 -0.013584375 0.210511756665
443 1 -0.021853125 -0.00125 -0.012403125 0.00154813293271
444 1 -0.021853125 -0.00125 -0.011221875 0.123928325831
445 1 -0.021853125 -0.00125 -0.010040625 0.159358746116
446 1 -0.021853125 -0.00125 -0.008859375 0.224469737872
447 1 -0.021853125 -0.00125 -0.007678125 0.0698876476892
448 1 -0.021853125 -0.00125 -0.006496875 3.14925560351e-13
449 1 -0.021853125 -0.00125 -0.005315625 1.22156214432e-15
450 1 -0.021853125 -0.00125 -0.004134375 0.000126657572948
451 1 -0.021853125 -0.00125 -0.002953125 0.00322594350264
452 1 -0.021853125 -0.00125 -0.001771875 0.0107214510125
453 1 -0.021853125 -0.00125 -0.000590625 0.0107214510125
454 1 -0.021853125 -0.00125 0.000590625 0.00565998393801
455 1 -0.021853125 -0.00125 0.001771875 4.52220221462e-06
456 1 -0.021853125 -0.00125 0.002953125 0.000299131636816
457 1 -0.021853125 -0.00125 0.004134375 0.00474644221021
458 1 -0.021853125 -0.00125 0.005315625 0.0912339065983
459 1 -0.021853125 -0.00125 0.006496875 0.0495618009758
460 1 -0.021853125 -0.00125 0.007678125 0.00805644213726
461 1 -0.021853125 -0.00125 0.008859375 0.0107214510125
462 1 -0.021853125 -0.00125 0.010040625 4.42606186288e-05
463 1 -0.021853125 -0.00125 0.011221875 1.74019667629e-11
464 1 -0.021853125 -0.00125 0.012403125 1.74019667629e-11
465 1 -0.021853125 -0.00125 0.013584375 0.00118682600863
466 1 -0.021853125 -0.00125 0.014765625 0.0293069007767
467 1 -0.021853125 -0.00125 0.015946875 6.01557630165e-07
468 1 -0.021853125 -0.00125 0.017128125 0.0
469 1 -0.021853125 -0.00125 0.018309375 0.091233852548
470 1 -0.021853125 -0.00125 0.019490625 0.149294239854
471 1 -0.021853125 -0.00125 0.020671875 1.22156214432e-15
472 1 -0.021853125 -0.00125 0.021853125 1.22156214432e-15
473 1 -0.021853125 -0.00125 0.023034375 0.000126658700522
474 1 -0.021853125 -0.00125 0.024215625 0.00154813293271
475 1 -0.021853125 -0.00125 0.025396875 0.000126658700522
476 1 -0.021853125 -0.00125 0.026578125 0.00565998798415
477 1 -0.021853125 -0.00125 0.027759375 0.000245540111831
478 1 -0.021853125 -0.00125 0.028940625 0.0
479 1 -0.020671875 -0.00125 -0.030121875 0.0
480 1 -0.020671875 -0.00125 -0.028940625 0.0
481 1 -0.020671875 -0.00125 -0.027759375 0.0
482 1 -0.020671875 -0.00125 -0.026578125 0.0
483 1 -0.020671875 -0.00125 -0.025396875 0.0
484 1 -0.020671875 -0.00125 -0.024215625 4.52227625942e-06
485 1 -0.020671875 -0.00125 -0.023034375 0.0
486 1 -0.020671875 -0.00125 -0.021853125 0.000126658700522
487 1 -0.020671875 -0.00125 -0.020671875 0.0138696939255
488 1 -0.020671875 -0.00125 -0.019490625 0.0138696939255
489 1 -0.020671875 -0.00125 -0.018309375 0.0293069007767
490 1 -0.020671875 -0.00125 -0.017128125 0.0999860491522
491 1 -0.020671875 -0.00125 -0.015946875 0.159358746116
492 1 -0.020671875 -0.00125 -0.014765625 0.0698876476892
493 1 -0.020671875 -0.00125 -0.013584375 0.0698874686089
494 1 -0.020671875 -0.00125 -0.012403125 4.52227625942e-06
495 1 -0.020671875 -0.00125 -0.011221875 6.01557630165e-07
496 1 -0.020671875 -0.00125 -0.010040625 4.52220221462e-06
497 1 -0.020671875 -0.00125 -0.008859375 0.01386971523
498 1 -0.020671875 -0.00125 -0.007678125 0.0622852495443
499 1 -0.020671875 -0.00125 -0.006496875 0.0234492700986
500 1 -0.020671875 -0.00125 -0.005315625 0.00805644213726
501 1 -0.020671875 -0.00125 -0.004134375 0.0746186412079
502 1 -0.020671875 -0.00125 -0.002953125 0.175758979902
503 1 -0.020671875 -0.00125 -0.001771875 0.105365916973
504 1 -0.020671875 -0.00125 -0.000590625 0.0746186412079
505 1 -0.020671875 -0.00125 0.000590625 0.0660411189129
506 1 -0.020671875 -0.00125 0.001771875 0.159358746116
507 1 -0.020671875 -0.00125 0.002953125 0.159358746116
508 1 -0.020671875 -0.00125 0.004134375 0.0622852805866
509 1 -0.020671875 -0.00125 0.005315625 0.0622852495443
510 1 -0.020671875 -0.00125 0.006496875 0.189317156978
511 1 -0.020671875 -0.00125 0.007678125 0.192471666975
512 1 -0.020671875 -0.00125 0.008859375 0.0827704828178
513 1 -0.020671875 -0.00125 0.010040625 0.0999860491522
514 1 -0.020671875 -0.00125 0.011221875 0.00474645121499
515 1 -0.020671875 -0.00125 0.012403125 0.00154812961495
516 1 -0.020671875 -0.00125 0.013584375 3.07880835211e-05
517 1 -0.020671875 -0.00125 0.014765625 0.00154812961495
518 1 -0.020671875 -0.00125 0.015946875 0.000126657572948
519 1 -0.020671875 -0.00125 0.017128125 0.0
520 1 -0.020671875 -0.00125 0.018309375 0.186171540908
521 1 -0.020671875 -0.00125 0.019490625 0.0802909760582
522 1 -0.020671875 -0.00125 0.020671875 0.000126658700522
523 1 -0.020671875 -0.00125 0.021853125 0.000891023127979
524 1 -0.020671875 -0.00125 0.023034375 0.000891023127979
525 1 -0.020671875 -0.00125 0.024215625 0.0138696939255
526 1 -0.020671875 -0.00125 0.025396875 0.0138696939255
527 1 -0.020671875 -0.00125 0.026578125 0.0207856853608
528 1 -0.020671875 -0.00125 0.027759375 0.00154813293271
529 1 -0.020671875 -0.00125 0.028940625 1.61610918776e-06
530 1 -0.020671875 -0.00125 0.030121875 0.0
531 1 -0.019490625 -0.00125 -0.031303125 0.0
532 1 -0.019490625 -0.00125 -0.030121875 0.0
533 1 -0.019490625 -0.00125 -0.028940625 0.0
534 1 -0.019490625 -0.00125 -0.027759375 1.58378774223e-05
535 1 -0.019490625 -0.00125 -0.026578125 2.34307016634e-18
536 1 -0.019490625 -0.00125 -0.025396875 4.52227625942e-06
537 1 -0.019490625 -0.00125 -0.024215625 3.07880835211e-05
538 1 -0.019490625 -0.00125 -0.023034375 0.0
539 1 -0.019490625 -0.00125 -0.021853125 0.000126658700522
540 1 -0.019490625 -0.00125 -0.020671875 0.0156289371363
541 1 -0.019490625 -0.00125 -0.019490625 0.00919688891624
542 1 -0.019490625 -0.00125 -0.018309375 0.0138696939255
543 1 -0.019490625 -0.00125 -0.017128125 0.0085515641959
544 1 -0.019490625 -0.00125 -0.015946875 0.0443321509394
545 1 -0.019490625 -0.00125 -0.014765625 0.243984411021
546 1 -0.019490625 -0.00125 -0.013584375 0.202520686428
547 1 -0.019490625 -0.00125 -0.012403125 0.00154812546777
548 1 -0.019490625 -0.00125 -0.011221875 5.56342681978e-05
549 1 -0.019490625 -0.00125 -0.010040625 5.5634138017e-05
550 1 -0.019490625 -0.00125 -0.008859375 0.00100194602939
551 1 -0.019490625 -0.00125 -0.007678125 0.00154812712664
552 1 -0.019490625 -0.00125 -0.006496875 0.0582624216669
553 1 -0.019490625 -0.00125 -0.005315625 0.0267810196531
554 1 -0.019490625 -0.00125 -0.004134375 0.0564724372545
555 1 -0.019490625 -0.00125 -0.002953125 0.0869646320803
556 1 -0.019490625 -0.00125 -0.001771875 0.123928564454
557 1 -0.019490625 -0.00125 -0.000590625 0.186171540908
558 1 -0.019490625 -0.00125 0.000590625 0.315080830279
559 1 -0.019490625 -0.00125 0.001771875 0.310081800728
560 1 -0.019490625 -0.00125 0.002953125 0.263674773127
561 1 -0.019490625 -0.00125 0.004134375 0.146305587116
562 1 -0.019490625 -0.00125 0.005315625 0.0187026692579
563 1 -0.019490625 -0.00125 0.006496875 0.000535661795715
564 1 -0.019490625 -0.00125 0.007678125 0.00154812961495