ITEM: TIMESTEP
0
ITEM: NUMBER OF ATOMS
3080
ITEM: BOX BOUNDS ss ss ss
-3.7007399999999996e-02 3.7007399999999996e-02
-2.0002499999999999e-03 2.5000000000000004e-07
-3.7007399999999996e-02 3.7007399999999996e-02
ITEM: ATOMS id type x y z c_1
0 1 -0.037209375 -0.00125 -0.000590625 1.0
1 1 -0.036028125 -0.00125 -0.007678125 0.0
2 1 -0.036028125 -0.00125 -0.006496875 0.0
3 1 -0.036028125 -0.00125 -0.005315625 0.0
4 1 -0.036028125 -0.00125 -0.004134375 0.00805644213726
5 1 -0.036028125 -0.00125 -0.002953125 0.226627730138
6 1 -0.036028125 -0.00125 -0.001771875 0.497762133252
7 1 -0.036028125 -0.00125 -0.000590625 0.232375684815
8 1 -0.036028125 -0.00125 0.000590625 0.0802689041925
9 1 -0.036028125 -0.00125 0.001771875 0.226627684957
10 1 -0.036028125 -0.00125 0.002953125 0.0593479449997
11 1 -0.036028125 -0.00125 0.004134375 3.70458005324e-08
12 1 -0.036028125 -0.00125 0.005315625 0.0
13 1 -0.036028125 -0.00125 0.006496875 0.0
14 1 -0.036028125 -0.00125 0.007678125 0.0
15 1 -0.034846875 -0.00125 -0.011221875 0.0378159779673
16 1 -0.034846875 -0.00125 -0.010040625 0.323420627886
17 1 -0.034846875 -0.00125 -0.008859375 0.182529172436
18 1 -0.034846875 -0.00125 -0.007678125 0.0
19 1 -0.034846875 -0.00125 -0.006496875 0.0
20 1 -0.034846875 -0.00125 -0.005315625 0.0
21 1 -0.034846875 -0.00125 -0.004134375 0.00154813293271
22 1 -0.034846875 -0.00125 -0.002953125 0.123928325831
23 1 -0.034846875 -0.00125 -0.001771875 0.68991847806
24 1 -0.034846875 -0.00125 -0.000590625 0.39037452881
25 1 -0.034846875 -0.00125 0.000590625 0.0738216716668
26 1 -0.034846875 -0.00125 0.001771875 0.0999860491522
27 1 -0.034846875 -0.00125 0.002953125 0.086119628518
28 1 -0.034846875 -0.00125 0.004134375 0.01386971523
29 1 -0.034846875 -0.00125 0.005315625 0.000299132858986
30 1 -0.034846875 -0.00125 0.006496875 1.74019667629e-11
31 1 -0.034846875 -0.00125 0.007678125 0.0328182961589
32 1 -0.034846875 -0.00125 0.008859375 0.447640546876
33 1 -0.034846875 -0.00125 0.010040625 0.341241260337
34 1 -0.034846875 -0.00125 0.011221875 0.0378159779673
35 1 -0.033665625 -0.00125 -0.013584375 0.0989464754719
36 1 -0.033665625 -0.00125 -0.012403125 0.335573622924
37 1 -0.033665625 -0.00125 -0.011221875 0.00713505279549
38 1 -0.033665625 -0.00125 -0.010040625 0.350163267536
39 1 -0.033665625 -0.00125 -0.008859375 0.0999860491522
40 1 -0.033665625 -0.00125 -0.007678125 0.0
41 1 -0.033665625 -0.00125 -0.006496875 0.0
42 1 -0.033665625 -0.00125 -0.005315625 0.0
43 1 -0.033665625 -0.00125 -0.004134375 0.0243767952624
44 1 -0.033665625 -0.00125 -0.002953125 0.281290170023
45 1 -0.033665625 -0.00125 -0.001771875 0.361325055821
46 1 -0.033665625 -0.00125 -0.000590625 0.482099221396
47 1 -0.033665625 -0.00125 0.000590625 0.0844388772747
48 1 -0.033665625 -0.00125 0.001771875 0.0509111013046
49 1 -0.033665625 -0.00125 0.002953125 0.0138696939255
50 1 -0.033665625 -0.00125 0.004134375 0.00249557400626
51 1 -0.033665625 -0.00125 0.005315625 0.000299132858986
52 1 -0.033665625 -0.00125 0.006496875 0.0034987279089
53 1 -0.033665625 -0.00125 0.007678125 0.196692230435
54 1 -0.033665625 -0.00125 0.008859375 0.14929428164
55 1 -0.033665625 -0.00125 0.010040625 0.0243767756543
56 1 -0.033665625 -0.00125 0.011221875 0.000245540111831
57 1 -0.033665625 -0.00125 0.012403125 0.00106278235535
58 1 -0.033665625 -0.00125 0.013584375 2.32938180581e-05
59 1 -0.032484375 -0.00125 -0.018309375 0.0
60 1 -0.032484375 -0.00125 -0.017128125 0.00106278235535
61 1 -0.032484375 -0.00125 -0.015946875 0.000338180341164
62 1 -0.032484375 -0.00125 -0.014765625 7.56149528992e-05
63 1 -0.032484375 -0.00125 -0.013584375 0.0455381516238
64 1 -0.032484375 -0.00125 -0.012403125 0.263674497482
65 1 -0.032484375 -0.00125 -0.011221875 0.0698876476892
66 1 -0.032484375 -0.00125 -0.010040625 0.355743098645
67 1 -0.032484375 -0.00125 -0.008859375 0.238544232212
68 1 -0.032484375 -0.00125 -0.007678125 0.0207857661482
69 1 -0.032484375 -0.00125 -0.006496875 2.71829692303e-12
70 1 -0.032484375 -0.00125 -0.005315625 2.79378975481e-22
71 1 -0.032484375 -0.00125 -0.004134375 0.0529663073376
72 1 -0.032484375 -0.00125 -0.002953125 0.095575355231
73 1 -0.032484375 -0.00125 -0.001771875 0.0999858631945
74 1 -0.032484375 -0.00125 -0.000590625 0.42712037928
75 1 -0.032484375 -0.00125 0.000590625 0.211386655711
76 1 -0.032484375 -0.00125 0.001771875 0.0243767854583
77 1 -0.032484375 -0.00125 0.002953125 3.07877004318e-05
78 1 -0.032484375 -0.00125 0.004134375 5.56343983788e-05
79 1 -0.032484375 -0.00125 0.005315625 0.00349873817525
80 1 -0.032484375 -0.00125 0.006496875 0.0878126545382
81 1 -0.032484375 -0.00125 0.007678125 0.0529663073376
82 1 -0.032484375 -0.00125 0.008859375 0.00118682874801
83 1 -0.032484375 -0.00125 0.010040625 3.14925560351e-13
84 1 -0.032484375 -0.00125 0.011221875 3.14925560351e-13
85 1 -0.032484375 -0.00125 0.012403125 0.000126657572948
86 1 -0.032484375 -0.00125 0.013584375 0.161554596958
87 1 -0.032484375 -0.00125 0.014765625 0.103613786578
88 1 -0.032484375 -0.00125 0.015946875 0.00238855254554
89 1 -0.032484375 -0.00125 0.017128125 5.44412977554e-09
90 1 -0.032484375 -0.00125 0.018309375 0.0
91 1 -0.031303125 -0.00125 -0.019490625 8.50218305249e-07
92 1 -0.031303125 -0.00125 -0.018309375 0.000245540111831
93 1 -0.031303125 -0.00125 -0.017128125 0.000126657572948
94 1 -0.031303125 -0.00125 -0.015946875 0.000126658700522
95 1 -0.031303125 -0.00125 -0.014765625 0.00668182974929
96 1 -0.031303125 -0.00125 -0.013584375 0.0600766491627
97 1 -0.031303125 -0.00125 -0.012403125 0.263674497482
98 1 -0.031303125 -0.00125 -0.011221875 0.0999860491522
99 1 -0.031303125 -0.00125 -0.010040625 0.263674497482
100 1 -0.031303125 -0.00125 -0.008859375 0.0698876476892
101 1 -0.031303125 -0.00125 -0.007678125 0.372493358291
102 1 -0.031303125 -0.00125 -0.006496875 0.000375788527528
103 1 -0.031303125 -0.00125 -0.005315625 0.0
104 1 -0.031303125 -0.00125 -0.004134375 1.74019667629e-11
105 1 -0.031303125 -0.00125 -0.002953125 0.00249557400626
106 1 -0.031303125 -0.00125 -0.001771875 0.159358746116
107 1 -0.031303125 -0.00125 -0.000590625 0.477623491928
108 1 -0.031303125 -0.00125 0.000590625 0.157333913073
109 1 -0.031303125 -0.00125 0.001771875 0.01386971523
110 1 -0.031303125 -0.00125 0.002953125 0.0
111 1 -0.031303125 -0.00125 0.004134375 1.74019667629e-11
112 1 -0.031303125 -0.00125 0.005315625 0.0622852495443
113 1 -0.031303125 -0.00125 0.006496875 0.216938015665
114 1 -0.031303125 -0.00125 0.007678125 0.0138696939255
115 1 -0.031303125 -0.00125 0.008859375 0.0
116 1 -0.031303125 -0.00125 0.010040625 1.22156214432e-15
117 1 -0.031303125 -0.00125 0.011221875 0.000126658700522
118 1 -0.031303125 -0.00125 0.012403125 0.321195978177
119 1 -0.031303125 -0.00125 0.013584375 0.136454951369
120 1 -0.031303125 -0.00125 0.014765625 6.01557630165e-07
121 1 -0.031303125 -0.00125 0.015946875 0.0
122 1 -0.031303125 -0.00125 0.017128125 0.0
123 1 -0.031303125 -0.00125 0.018309375 1.18026294841e-10
124 1 -0.031303125 -0.00125 0.019490625 0.0
125 1 -0.030121875 -0.00125 -0.020671875 0.0
126 1 -0.030121875 -0.00125 -0.019490625 0.000156159772145
127 1 -0.030121875 -0.00125 -0.018309375 0.0293069007767
128 1 -0.030121875 -0.00125 -0.017128125 0.0293069007767
129 1 -0.030121875 -0.00125 -0.015946875 0.00668182974929
130 1 -0.030121875 -0.00125 -0.014765625 0.0175125891118
131 1 -0.030121875 -0.00125 -0.013584375 0.146305878173
132 1 -0.030121875 -0.00125 -0.012403125 0.459723333625
133 1 -0.030121875 -0.00125 -0.011221875 0.133535038668
134 1 -0.030121875 -0.00125 -0.010040625 0.0243767952624
135 1 -0.030121875 -0.00125 -0.008859375 0.00249557865471
136 1 -0.030121875 -0.00125 -0.007678125 0.143331930085
137 1 -0.030121875 -0.00125 -0.006496875 0.0113118977017
138 1 -0.030121875 -0.00125 -0.005315625 1.22156214432e-15
139 1 -0.030121875 -0.00125 -0.004134375 0.000126658700522
140 1 -0.030121875 -0.00125 -0.002953125 6.01557630165e-07
141 1 -0.030121875 -0.00125 -0.001771875 0.133535038668
142 1 -0.030121875 -0.00125 -0.000590625 0.281290170023
143 1 -0.030121875 -0.00125 0.000590625 0.0138697507376
144 1 -0.030121875 -0.00125 0.001771875 0.000126658700522
145 1 -0.030121875 -0.00125 0.002953125 0.00154813293271
146 1 -0.030121875 -0.00125 0.004134375 0.00154812961495
147 1 -0.030121875 -0.00125 0.005315625 0.114532114604
148 1 -0.030121875 -0.00125 0.006496875 0.252716738676
149 1 -0.030121875 -0.00125 0.007678125 6.01557630165e-07
150 1 -0.030121875 -0.00125 0.008859375 6.01557630165e-07
151 1 -0.030121875 -0.00125 0.010040625 0.159358746116
152 1 -0.030121875 -0.00125 0.011221875 0.466435789363
153 1 -0.030121875 -0.00125 0.012403125 0.627506641709
154 1 -0.030121875 -0.00125 0.013584375 0.0443321509394
155 1 -0.030121875 -0.00125 0.014765625 1.74019667629e-11
156 1 -0.030121875 -0.00125 0.015946875 1.74019667629e-11
157 1 -0.030121875 -0.00125 0.017128125 6.01557630165e-07
158 1 -0.030121875 -0.00125 0.018309375 1.74019667629e-11
159 1 -0.030121875 -0.00125 0.019490625 2.79378975481e-22
160 1 -0.030121875 -0.00125 0.020671875 0.0
161 1 -0.028940625 -0.00125 -0.021853125 0.00466864259094
162 1 -0.028940625 -0.00125 -0.020671875 0.000572976738397
163 1 -0.028940625 -0.00125 -0.019490625 0.0175125891118
164 1 -0.028940625 -0.00125 -0.018309375 0.0443322841124
165 1 -0.028940625 -0.00125 -0.017128125 0.123928325831
166 1 -0.028940625 -0.00125 -0.015946875 0.14929428164
167 1 -0.028940625 -0.00125 -0.014765625 0.0243767952624
168 1 -0.028940625 -0.00125 -0.013584375 0.154307352577
169 1 -0.028940625 -0.00125 -0.012403125 0.807528333025
170 1 -0.028940625 -0.00125 -0.011221875 0.133535038668
171 1 -0.028940625 -0.00125 -0.010040625 6.01557630165e-07
172 1 -0.028940625 -0.00125 -0.008859375 0.000299132858986
173 1 -0.028940625 -0.00125 -0.007678125 0.0347170407724
174 1 -0.028940625 -0.00125 -0.006496875 0.159359255263
175 1 -0.028940625 -0.00125 -0.005315625 0.21372123369
176 1 -0.028940625 -0.00125 -0.004134375 0.252716464147
177 1 -0.028940625 -0.00125 -0.002953125 0.21372123369
178 1 -0.028940625 -0.00125 -0.001771875 0.361324541927
179 1 -0.028940625 -0.00125 -0.000590625 0.292342717184
180 1 -0.028940625 -0.00125 0.000590625 0.252716464147
181 1 -0.028940625 -0.00125 0.001771875 0.263674497482
182 1 -0.028940625 -0.00125 0.002953125 0.401555093596
183 1 -0.028940625 -0.00125 0.004134375 0.0912339065983
184 1 -0.028940625 -0.00125 0.005315625 0.263674497482
185 1 -0.028940625 -0.00125 0.006496875 0.281290170023
186 1 -0.028940625 -0.00125 0.007678125 0.0443323240644
187 1 -0.028940625 -0.00125 0.008859375 0.252716967449
188 1 -0.028940625 -0.00125 0.010040625 0.506713038468
189 1 -0.028940625 -0.00125 0.011221875 0.638675411355
190 1 -0.028940625 -0.00125 0.012403125 0.401555093596
191 1 -0.028940625 -0.00125 0.013584375 0.15935900069
192 1 -0.028940625 -0.00125 0.014765625 0.00154812961495
193 1 -0.028940625 -0.00125 0.015946875 0.000126657572948
194 1 -0.028940625 -0.00125 0.017128125 0.00154813293271
195 1 -0.028940625 -0.00125 0.018309375 0.0443322841124
196 1 -0.028940625 -0.00125 0.019490625 1.77731074088e-06
197 1 -0.028940625 -0.00125 0.020671875 1.61610918776e-06
198 1 -0.028940625 -0.00125 0.021853125 0.00466864259094
199 1 -0.027759375 -0.00125 -0.024215625 0.0
200 1 -0.027759375 -0.00125 -0.023034375 0.0505240441822
201 1 -0.027759375 -0.00125 -0.021853125 0.262189887378
202 1 -0.027759375 -0.00125 -0.020671875 0.372492797347
203 1 -0.027759375 -0.00125 -0.019490625 0.306751725329
204 1 -0.027759375 -0.00125 -0.018309375 0.0698876476892
205 1 -0.027759375 -0.00125 -0.017128125 0.241806863156
206 1 -0.027759375 -0.00125 -0.015946875 0.224469737872
207 1 -0.027759375 -0.00125 -0.014765625 0.196692230435
208 1 -0.027759375 -0.00125 -0.013584375 0.341241493571
209 1 -0.027759375 -0.00125 -0.012403125 0.95940822244
210 1 -0.027759375 -0.00125 -0.011221875 0.332327069371
211 1 -0.027759375 -0.00125 -0.010040625 0.0175126135393
212 1 -0.027759375 -0.00125 -0.008859375 0.0293069007767
213 1 -0.027759375 -0.00125 -0.007678125 0.105365916973
214 1 -0.027759375 -0.00125 -0.006496875 0.295664152964
215 1 -0.027759375 -0.00125 -0.005315625 0.412738808647
216 1 -0.027759375 -0.00125 -0.004134375 0.423924351901
217 1 -0.027759375 -0.00125 -0.002953125 0.332327069371
218 1 -0.027759375 -0.00125 -0.001771875 0.493287429666
219 1 -0.027759375 -0.00125 -0.000590625 0.447416694397
220 1 -0.027759375 -0.00125 0.000590625 0.412738808647
221 1 -0.027759375 -0.00125 0.001771875 0.441823153862
222 1 -0.027759375 -0.00125 0.002953125 0.430635859907
223 1 -0.027759375 -0.00125 0.004134375 0.203051971158
224 1 -0.027759375 -0.00125 0.005315625 0.339012100871
225 1 -0.027759375 -0.00125 0.006496875 0.554820744781
226 1 -0.027759375 -0.00125 0.007678125 0.259286106027
227 1 -0.027759375 -0.00125 0.008859375 0.397082377634
228 1 -0.027759375 -0.00125 0.010040625 0.718709829977
229 1 -0.027759375 -0.00125 0.011221875 0.551464650233
230 1 -0.027759375 -0.00125 0.012403125 0.0999860491522
231 1 -0.027759375 -0.00125 0.013584375 0.11175699854
232 1 -0.027759375 -0.00125 0.014765625 0.0293069007767
233 1 -0.027759375 -0.00125 0.015946875 0.0293069007767
234 1 -0.027759375 -0.00125 0.017128125 0.0443322841124
235 1 -0.027759375 -0.00125 0.018309375 0.0698876476892
236 1 -0.027759375 -0.00125 0.019490625 1.5838087899e-05
237 1 -0.027759375 -0.00125 0.020671875 1.74019667629e-11
238 1 -0.027759375 -0.00125 0.021853125 0.0787502203907
239 1 -0.027759375 -0.00125 0.023034375 0.537400066181
240 1 -0.027759375 -0.00125 0.024215625 0.175581592063
241 1 -0.026578125 -0.00125 -0.026578125 0.0225621152214
242 1 -0.026578125 -0.00125 -0.025396875 2.09029107459e-05
243 1 -0.026578125 -0.00125 -0.024215625 1.19428386905e-12
244 1 -0.026578125 -0.00125 -0.023034375 0.00154813293271
245 1 -0.026578125 -0.00125 -0.021853125 0.15935900069
246 1 -0.026578125 -0.00125 -0.020671875 0.210511756665
247 1 -0.026578125 -0.00125 -0.019490625 0.245619499638
248 1 -0.026578125 -0.00125 -0.018309375 0.167516386218
249 1 -0.026578125 -0.00125 -0.017128125 0.15935900069
250 1 -0.026578125 -0.00125 -0.015946875 0.141358161149
251 1 -0.026578125 -0.00125 -0.014765625 0.15935900069
252 1 -0.026578125 -0.00125 -0.013584375 0.214792810746
253 1 -0.026578125 -0.00125 -0.012403125 0.744000752515
254 1 -0.026578125 -0.00125 -0.011221875 0.73083038025
255 1 -0.026578125 -0.00125 -0.010040625 0.463079531992
256 1 -0.026578125 -0.00125 -0.008859375 0.687696883542
257 1 -0.026578125 -0.00125 -0.007678125 0.27798071177
258 1 -0.026578125 -0.00125 -0.006496875 0.189842124402
259 1 -0.026578125 -0.00125 -0.005315625 0.000535660654302
260 1 -0.026578125 -0.00125 -0.004134375 0.0175125891118
261 1 -0.026578125 -0.00125 -0.002953125 0.0600766644463
262 1 -0.026578125 -0.00125 -0.001771875 0.138411069761
263 1 -0.026578125 -0.00125 -0.000590625 0.188267393672
264 1 -0.026578125 -0.00125 0.000590625 0.045983261426
265 1 -0.026578125 -0.00125 0.001771875 0.095575355231
266 1 -0.026578125 -0.00125 0.002953125 0.098213500473
267 1 -0.026578125 -0.00125 0.004134375 0.104463011071
268 1 -0.026578125 -0.00125 0.005315625 0.48545545849
269 1 -0.026578125 -0.00125 0.006496875 0.611302273114
270 1 -0.026578125 -0.00125 0.007678125 0.272470973225
271 1 -0.026578125 -0.00125 0.008859375 0.626389306794
272 1 -0.026578125 -0.00125 0.010040625 0.777685676129
273 1 -0.026578125 -0.00125 0.011221875 0.277980204193
274 1 -0.026578125 -0.00125 0.012403125 0.159358746116
275 1 -0.026578125 -0.00125 0.013584375 0.126311121604
276 1 -0.026578125 -0.00125 0.014765625 0.036431516761
277 1 -0.026578125 -0.00125 0.015946875 0.0156289295152
278 1 -0.026578125 -0.00125 0.017128125 0.0564721545756
279 1 -0.026578125 -0.00125 0.018309375 0.0912338705648
280 1 -0.026578125 -0.00125 0.019490625 0.0710587268896
281 1 -0.026578125 -0.00125 0.020671875 0.306751725329
282 1 -0.026578125 -0.00125 0.021853125 0.341241773452
283 1 -0.026578125 -0.00125 0.023034375 0.321196210886
284 1 -0.026578125 -0.00125 0.024215625 0.113904753912
285 1 -0.026578125 -0.00125 0.025396875 0.115545221026
286 1 -0.026578125 -0.00125 0.026578125 0.056860843261
287 1 -0.025396875 -0.00125 -0.026578125 0.478416462758
288 1 -0.025396875 -0.00125 -0.025396875 0.123928325831
289 1 -0.025396875 -0.00125 -0.024215625 0.0622852495443
290 1 -0.025396875 -0.00125 -0.023034375 0.10900325236
291 1 -0.025396875 -0.00125 -0.021853125 0.0999860491522
292 1 -0.025396875 -0.00125 -0.020671875 0.00154813293271
293 1 -0.025396875 -0.00125 -0.019490625 7.02299466978e-08
294 1 -0.025396875 -0.00125 -0.018309375 0.0243767756543
295 1 -0.025396875 -0.00125 -0.017128125 0.0622852805866
296 1 -0.025396875 -0.00125 -0.015946875 0.123928325831
297 1 -0.025396875 -0.00125 -0.014765625 0.123928325831
298 1 -0.025396875 -0.00125 -0.013584375 0.0802910104399
299 1 -0.025396875 -0.00125 -0.012403125 0.464198454903
300 1 -0.025396875 -0.00125 -0.011221875 0.598444906404
301 1 -0.025396875 -0.00125 -0.010040625 0.605153546988
302 1 -0.025396875 -0.00125 -0.008859375 0.747283032551
303 1 -0.025396875 -0.00125 -0.007678125 0.196692230435
304 1 -0.025396875 -0.00125 -0.006496875 0.123928365601
305 1 -0.025396875 -0.00125 -0.005315625 0.0778403011007
306 1 -0.025396875 -0.00125 -0.004134375 0.0347170407724
307 1 -0.025396875 -0.00125 -0.002953125 0.0138696939255
308 1 -0.025396875 -0.00125 -0.001771875 0.143332385117
309 1 -0.025396875 -0.00125 -0.000590625 0.226628091588
310 1 -0.025396875 -0.00125 0.000590625 0.039862879252
311 1 -0.025396875 -0.00125 0.001771875 0.00154813293271
312 1 -0.025396875 -0.00125 0.002953125 0.0347170643937
313 1 -0.025396875 -0.00125 0.004134375 0.0347170643937
314 1 -0.025396875 -0.00125 0.005315625 0.383667992273
315 1 -0.025396875 -0.00125 0.006496875 0.76904757614
316 1 -0.025396875 -0.00125 0.007678125 0.824241106743
317 1 -0.025396875 -0.00125 0.008859375 0.638675411355
318 1 -0.025396875 -0.00125 0.010040625 0.123928325831
319 1 -0.025396875 -0.00125 0.011221875 0.235286796702
320 1 -0.025396875 -0.00125 0.012403125 0.430635859907
321 1 -0.025396875 -0.00125 0.013584375 0.5
322 1 -0.025396875 -0.00125 0.014765625 0.361325055821
323 1 -0.025396875 -0.00125 0.015946875 0.678803556406
324 1 -0.025396875 -0.00125 0.017128125 0.796948028842
325 1 -0.025396875 -0.00125 0.018309375 0.252716464147
326 1 -0.025396875 -0.00125 0.019490625 0.186171540908
327 1 -0.025396875 -0.00125 0.020671875 0.0698876476892
328 1 -0.025396875 -0.00125 0.021853125 0.0293069224194
329 1 -0.025396875 -0.00125 0.023034375 0.00668184101894
330 1 -0.025396875 -0.00125 0.024215625 6.01557630165e-07
331 1 -0.025396875 -0.00125 0.025396875 0.0
332 1 -0.025396875 -0.00125 0.026578125 1.27653918126e-20
333 1 -0.024215625 -0.00125 -0.027759375 0.0863124897165
334 1 -0.024215625 -0.00125 -0.026578125 0.580944924403
335 1 -0.024215625 -0.00125 -0.025396875 0.775530217004
336 1 -0.024215625 -0.00125 -0.024215625 0.740713893973
337 1 -0.024215625 -0.00125 -0.023034375 0.448535349767
338 1 -0.024215625 -0.00125 -0.021853125 0.551464650233
339 1 -0.024215625 -0.00125 -0.020671875 0.303422785529
340 1 -0.024215625 -0.00125 -0.019490625 0.0660411189129
341 1 -0.024215625 -0.00125 -0.018309375 0.123928325831
342 1 -0.024215625 -0.00125 -0.017128125 0.0443322841124
343 1 -0.024215625 -0.00125 -0.015946875 0.0999860491522
344 1 -0.024215625 -0.00125 -0.014765625 0.133535038668
345 1 -0.024215625 -0.00125 -0.013584375 0.0698876476892
346 1 -0.024215625 -0.00125 -0.012403125 0.0698876476892
347 1 -0.024215625 -0.00125 -0.011221875 0.263674497482
348 1 -0.024215625 -0.00125 -0.010040625 0.631974825117
349 1 -0.024215625 -0.00125 -0.008859375 0.517900778604
350 1 -0.024215625 -0.00125 -0.007678125 0.263675002831
351 1 -0.024215625 -0.00125 -0.006496875 0.258190223374
352 1 -0.024215625 -0.00125 -0.005315625 0.430635345024
353 1 -0.024215625 -0.00125 -0.004134375 0.511187741896
354 1 -0.024215625 -0.00125 -0.002953125 0.186171540908
355 1 -0.024215625 -0.00125 -0.001771875 0.207310173634
356 1 -0.024215625 -0.00125 -0.000590625 0.441263581812
357 1 -0.024215625 -0.00125 0.000590625 0.145312757201
358 1 -0.024215625 -0.00125 0.001771875 0.0509111439139
359 1 -0.024215625 -0.00125 0.002953125 0.0293069007767
360 1 -0.024215625 -0.00125 0.004134375 0.314525490432
361 1 -0.024215625 -0.00125 0.005315625 0.580549910179
362 1 -0.024215625 -0.00125 0.006496875 0.930112352311
363 1 -0.024215625 -0.00125 0.007678125 0.511187741896
364 1 -0.024215625 -0.00125 0.008859375 0.224469737872
365 1 -0.024215625 -0.00125 0.010040625 0.123928325831
366 1 -0.024215625 -0.00125 0.011221875 0.252716464147
367 1 -0.024215625 -0.00125 0.012403125 0.649836732464
368 1 -0.024215625 -0.00125 0.013584375 0.669899997565
369 1 -0.024215625 -0.00125 0.014765625 0.21372123369
370 1 -0.024215625 -0.00125 0.015946875 0.091233852548
371 1 -0.024215625 -0.00125 0.017128125 0.0443322841124
372 1 -0.024215625 -0.00125 0.018309375 0.00668184101894
373 1 -0.024215625 -0.00125 0.019490625 1.28754471296e-08
374 1 -0.024215625 -0.00125 0.020671875 0.0
375 1 -0.024215625 -0.00125 0.021853125 1.74019667629e-11
376 1 -0.024215625 -0.00125 0.023034375 0.0
377 1 -0.024215625 -0.00125 0.024215625 0.0
378 1 -0.024215625 -0.00125 0.025396875 0.0
379 1 -0.024215625 -0.00125 0.026578125 0.0
380 1 -0.024215625 -0.00125 0.027759375 0.0
381 1 -0.023034375 -0.00125 -0.027759375 0.232375684815
382 1 -0.023034375 -0.00125 -0.026578125 0.381432738135
383 1 -0.023034375 -0.00125 -0.025396875 0.196692230435
384 1 -0.023034375 -0.00125 -0.024215625 0.186171540908
385 1 -0.023034375 -0.00125 -0.023034375 0.186171540908
386 1 -0.023034375 -0.00125 -0.021853125 0.186171540908
387 1 -0.023034375 -0.00125 -0.020671875 0.321195978177
388 1 -0.023034375 -0.00125 -0.019490625 0.78306171486
389 1 -0.023034375 -0.00125 -0.018309375 0.59844434493
390 1 -0.023034375 -0.00125 -0.017128125 0.441823107051
391 1 -0.023034375 -0.00125 -0.015946875 0.390374014268
392 1 -0.023034375 -0.00125 -0.014765625 0.470910984646
393 1 -0.023034375 -0.00125 -0.013584375 0.0443322841124
394 1 -0.023034375 -0.00125 -0.012403125 0.0293069007767
395 1 -0.023034375 -0.00125 -0.011221875 0.0698876476892
396 1 -0.023034375 -0.00125 -0.010040625 0.40155560828
397 1 -0.023034375 -0.00125 -0.008859375 0.718709829977
398 1 -0.023034375 -0.00125 -0.007678125 0.656528095261
399 1 -0.023034375 -0.00125 -0.006496875 0.560414330207
400 1 -0.023034375 -0.00125 -0.005315625 0.834531294591
401 1 -0.023034375 -0.00125 -0.004134375 0.937714781498
402 1 -0.023034375 -0.00125 -0.002953125 0.736324951228
403 1 -0.023034375 -0.00125 -0.001771875 0.718709829977
404 1 -0.023034375 -0.00125 -0.000590625 0.394287128987
405 1 -0.023034375 -0.00125 0.000590625 0.256656295418
406 1 -0.023034375 -0.00125 0.001771875 0.332327162581
407 1 -0.023034375 -0.00125 0.002953125 0.383667992273
408 1 -0.023034375 -0.00125 0.004134375 0.758192544835
409 1 -0.023034375 -0.00125 0.005315625 0.903547883292
410 1 -0.023034375 -0.00125 0.006496875 0.780913482959
411 1 -0.023034375 -0.00125 0.007678125 0.21372123369
412 1 -0.023034375 -0.00125 0.008859375 0.252716464147
413 1 -0.023034375 -0.00125 0.010040625 0.224469737872
414 1 -0.023034375 -0.00125 0.011221875 0.430635859907
415 1 -0.023034375 -0.00125 0.012403125 0.885467904821
416 1 -0.023034375 -0.00125 0.013584375 0.529088781288
417 1 -0.023034375 -0.00125 0.014765625 0.000126658700522
418 1 -0.023034375 -0.00125 0.015946875 0.0
419 1 -0.023034375 -0.00125 0.017128125 4.52220221462e-06
420 1 -0.023034375 -0.00125 0.018309375 0.000126657572948
421 1 -0.023034375 -0.00125 0.019490625 0.0098718633607
422 1 -0.023034375 -0.00125 0.020671875 0.0
423 1 -0.023034375 -0.00125 0.021853125 0.0
424 1 -0.023034375 -0.00125 0.023034375 0.0
425 1 -0.023034375 -0.00125 0.024215625 0.0
426 1 -0.023034375 -0.00125 0.025396875 0.0
427 1 -0.023034375 -0.00125 0.026578125 1.28754471296e-08
428 1 -0.023034375 -0.00125 0.027759375 0.00106278235535
429 1 -0.021853125 -0.00125 -0.028940625 0.129318565008
430 1 -0.021853125 -0.00125 -0.027759375 0.397345589745
431 1 -0.021853125 -0.00125 -0.026578125 0.40155560828
432 1 -0.021853125 -0.00125 -0.025396875 1.74019667629e-11
433 1 -0.021853125 -0.00125 -0.024215625 1.74019667629e-11
434 1 -0.021853125 -0.00125 -0.023034375 0.0
435 1 -0.021853125 -0.00125 -0.021853125 4.52227625942e-06
436 1 -0.021853125 -0.00125 -0.020671875 0.00154813293271
437 1 -0.021853125 -0.00125 -0.019490625 0.395964703922
438 1 -0.021853125 -0.00125 -0.018309375 0.551464650233
439 1 -0.021853125 -0.00125 -0.017128125 0.40155560828
440 1 -0.021853125 -0.00125 -0.015946875 0.59844434493
441 1 -0.021853125 -0.00125 -0.014765625 0.917229569349
442 1 -0.021853125 -0.00125 -0.013584375 0.40155560828
443 1 -0.021853125 -0.00125 -0.012403125 0.0243767756543
444 1 -0.021853125 -0.00125 -0.011221875 0.0509111013046
445 1 -0.021853125 -0.00125 -0.010040625 0.091233852548
446 1 -0.021853125 -0.00125 -0.008859375 0.638675411355
447 1 -0.021853125 -0.00125 -0.007678125 0.879856528506
448 1 -0.021853125 -0.00125 -0.006496875 0.979214224875
449 1 -0.021853125 -0.00125 -0.005315625 1.0
450 1 -0.021853125 -0.00125 -0.004134375 0.991943552781
451 1 -0.021853125 -0.00125 -0.002953125 0.850705634787
452 1 -0.021853125 -0.00125 -0.001771875 0.786278228522
453 1 -0.021853125 -0.00125 -0.000590625 0.739069159948
454 1 -0.021853125 -0.00125 0.000590625 0.762975973622
455 1 -0.021853125 -0.00125 0.001771875 0.569364654976
456 1 -0.021853125 -0.00125 0.002953125 0.980062492153
457 1 -0.021853125 -0.00125 0.004134375 0.944942006328
458 1 -0.021853125 -0.00125 0.005315625 0.99331812968
459 1 -0.021853125 -0.00125 0.006496875 0.698795338138
460 1 -0.021853125 -0.00125 0.007678125 0.21372123369
461 1 -0.021853125 -0.00125 0.008859375 0.175758893257
462 1 -0.021853125 -0.00125 0.010040625 0.263674497482
463 1 -0.021853125 -0.00125 0.011221875 0.529089062167
464 1 -0.021853125 -0.00125 0.012403125 0.876071634399
465 1 -0.021853125 -0.00125 0.013584375 0.689917920485
466 1 -0.021853125 -0.00125 0.014765625 0.00474645121499
467 1 -0.021853125 -0.00125 0.015946875 0.0
468 1 -0.021853125 -0.00125 0.017128125 1.74019667629e-11
469 1 -0.021853125 -0.00125 0.018309375 0.00668182974929
470 1 -0.021853125 -0.00125 0.019490625 0.0802910276307
471 1 -0.021853125 -0.00125 0.020671875 0.000126657572948
472 1 -0.021853125 -0.00125 0.021853125 0.000126657572948
473 1 -0.021853125 -0.00125 0.023034375 1.74019667629e-11
474 1 -0.021853125 -0.00125 0.024215625 1.74019667629e-11
475 1 -0.021853125 -0.00125 0.025396875 0.0
476 1 -0.021853125 -0.00125 0.026578125 0.0
477 1 -0.021853125 -0.00125 0.027759375 0.019545473199
478 1 -0.021853125 -0.00125 0.028940625 0.00466864259094
479 1 -0.020671875 -0.00125 -0.030121875 0.000167490860231
480 1 -0.020671875 -0.00125 -0.028940625 0.00147479831613
481 1 -0.020671875 -0.00125 -0.027759375 0.252716967449
482 1 -0.020671875 -0.00125 -0.026578125 0.0738218713525
483 1 -0.020671875 -0.00125 -0.025396875 0.0
484 1 -0.020671875 -0.00125 -0.024215625 0.0
485 1 -0.020671875 -0.00125 -0.023034375 0.000299132858986
486 1 -0.020671875 -0.00125 -0.021853125 1.74019667629e-11
487 1 -0.020671875 -0.00125 -0.020671875 1.74019667629e-11
488 1 -0.020671875 -0.00125 -0.019490625 0.146305587116
489 1 -0.020671875 -0.00125 -0.018309375 0.263674497482
490 1 -0.020671875 -0.00125 -0.017128125 0.0778403180889
491 1 -0.020671875 -0.00125 -0.015946875 0.159358746116
492 1 -0.020671875 -0.00125 -0.014765625 0.580550471812
493 1 -0.020671875 -0.00125 -0.013584375 0.62638958728
494 1 -0.020671875 -0.00125 -0.012403125 0.159358746116
495 1 -0.020671875 -0.00125 -0.011221875 0.0509111013046
496 1 -0.020671875 -0.00125 -0.010040625 0.169569358233
497 1 -0.020671875 -0.00125 -0.008859375 0.39037452881
498 1 -0.020671875 -0.00125 -0.007678125 0.638675411355
499 1 -0.020671875 -0.00125 -0.006496875 0.986130220856
500 1 -0.020671875 -0.00125 -0.005315625 0.999108981871
501 1 -0.020671875 -0.00125 -0.004134375 0.991943552781
502 1 -0.020671875 -0.00125 -0.002953125 0.99995573976
503 1 -0.020671875 -0.00125 -0.001771875 0.999923011925
504 1 -0.020671875 -0.00125 -0.000590625 0.999999995189
505 1 -0.020671875 -0.00125 0.000590625 0.994339993808
506 1 -0.020671875 -0.00125 0.001771875 0.999999962954
507 1 -0.020671875 -0.00125 0.002953125 0.996774052335
508 1 -0.020671875 -0.00125 0.004134375 0.99750442948
509 1 -0.020671875 -0.00125 0.005315625 0.894634139788
510 1 -0.020671875 -0.00125 0.006496875 0.695467742007
511 1 -0.020671875 -0.00125 0.007678125 0.196692230435
512 1 -0.020671875 -0.00125 0.008859375 0.14929428164
513 1 -0.020671875 -0.00125 0.010040625 0.350163267536
514 1 -0.020671875 -0.00125 0.011221875 0.580550471812
515 1 -0.020671875 -0.00125 0.012403125 0.740713893973
516 1 -0.020671875 -0.00125 0.013584375 0.691028416242
517 1 -0.020671875 -0.00125 0.014765625 0.00474645121499
518 1 -0.020671875 -0.00125 0.015946875 1.74019667629e-11
519 1 -0.020671875 -0.00125 0.017128125 0.00154812961495
520 1 -0.020671875 -0.00125 0.018309375 0.00668182974929
521 1 -0.020671875 -0.00125 0.019490625 7.46384686318e-06
522 1 -0.020671875 -0.00125 0.020671875 0.000126657572948
523 1 -0.020671875 -0.00125 0.021853125 0.000299131636816
524 1 -0.020671875 -0.00125 0.023034375 0.0175125972543
525 1 -0.020671875 -0.00125 0.024215625 0.000299131636816
526 1 -0.020671875 -0.00125 0.025396875 0.0
527 1 -0.020671875 -0.00125 0.026578125 0.0
528 1 -0.020671875 -0.00125 0.027759375 0.000126658700522
529 1 -0.020671875 -0.00125 0.028940625 0.000245540111831
530 1 -0.020671875 -0.00125 0.030121875 0.0
531 1 -0.019490625 -0.00125 -0.031303125 8.50218305249e-07
532 1 -0.019490625 -0.00125 -0.030121875 0.0
533 1 -0.019490625 -0.00125 -0.028940625 2.79378975481e-22
534 1 -0.019490625 -0.00125 -0.027759375 3.14925560351e-13
535 1 -0.019490625 -0.00125 -0.026578125 4.17334752484e-05
536 1 -0.019490625 -0.00125 -0.025396875 2.79378975481e-22
537 1 -0.019490625 -0.00125 -0.024215625 0.0
538 1 -0.019490625 -0.00125 -0.023034375 1.74019667629e-11
539 1 -0.019490625 -0.00125 -0.021853125 1.74019667629e-11
540 1 -0.019490625 -0.00125 -0.020671875 0.00154812961495