ITEM: TIMESTEP
0
ITEM: NUMBER OF ATOMS
3080
ITEM: BOX BOUNDS ss ss ss
-3.7007399999999996e-02 3.7007399999999996e-02
-2.0002499999999999e-03 2.5000000000000004e-07
-3.7007399999999996e-02 3.7007399999999996e-02
ITEM: ATOMS id type x y z c_1
0 1 -0.037209375 -0.00125 -0.000590625 0.0
1 1 -0.036028125 -0.00125 -0.007678125 0.0
2 1 -0.036028125 -0.00125 -0.006496875 0.0
3 1 -0.036028125 -0.00125 -0.005315625 0.0
4 1 -0.036028125 -0.00125 -0.004134375 0.0
5 1 -0.036028125 -0.00125 -0.002953125 0.0
6 1 -0.036028125 -0.00125 -0.001771875 0.0
7 1 -0.036028125 -0.00125 -0.000590625 1.26585649923e-05
8 1 -0.036028125 -0.00125 0.000590625 0.182529172436
9 1 -0.036028125 -0.00125 0.001771875 0.135479596443
10 1 -0.036028125 -0.00125 0.002953125 4.42606186288e-05
11 1 -0.036028125 -0.00125 0.004134375 0.0
12 1 -0.036028125 -0.00125 0.005315625 0.0
13 1 -0.036028125 -0.00125 0.006496875 0.0
14 1 -0.036028125 -0.00125 0.007678125 0.00920066229086
15 1 -0.034846875 -0.00125 -0.011221875 0.0
16 1 -0.034846875 -0.00125 -0.010040625 0.0
17 1 -0.034846875 -0.00125 -0.008859375 0.0
18 1 -0.034846875 -0.00125 -0.007678125 0.0
19 1 -0.034846875 -0.00125 -0.006496875 0.0
20 1 -0.034846875 -0.00125 -0.005315625 0.0
21 1 -0.034846875 -0.00125 -0.004134375 0.0
22 1 -0.034846875 -0.00125 -0.002953125 0.0
23 1 -0.034846875 -0.00125 -0.001771875 0.0
24 1 -0.034846875 -0.00125 -0.000590625 0.0138697081285
25 1 -0.034846875 -0.00125 0.000590625 0.332326556717
26 1 -0.034846875 -0.00125 0.001771875 0.159358746116
27 1 -0.034846875 -0.00125 0.002953125 4.42606186288e-05
28 1 -0.034846875 -0.00125 0.004134375 0.0
29 1 -0.034846875 -0.00125 0.005315625 0.0
30 1 -0.034846875 -0.00125 0.006496875 0.0
31 1 -0.034846875 -0.00125 0.007678125 0.112788508618
32 1 -0.034846875 -0.00125 0.008859375 0.320687946562
33 1 -0.034846875 -0.00125 0.010040625 3.70458005324e-08
34 1 -0.034846875 -0.00125 0.011221875 0.00920066229086
35 1 -0.033665625 -0.00125 -0.013584375 0.0
36 1 -0.033665625 -0.00125 -0.012403125 0.0
37 1 -0.033665625 -0.00125 -0.011221875 0.0
38 1 -0.033665625 -0.00125 -0.010040625 0.0
39 1 -0.033665625 -0.00125 -0.008859375 0.0
40 1 -0.033665625 -0.00125 -0.007678125 0.0
41 1 -0.033665625 -0.00125 -0.006496875 0.0
42 1 -0.033665625 -0.00125 -0.005315625 0.0
43 1 -0.033665625 -0.00125 -0.004134375 0.0
44 1 -0.033665625 -0.00125 -0.002953125 0.0
45 1 -0.033665625 -0.00125 -0.001771875 1.74019667629e-11
46 1 -0.033665625 -0.00125 -0.000590625 0.0156289371363
47 1 -0.033665625 -0.00125 0.000590625 0.361324541927
48 1 -0.033665625 -0.00125 0.001771875 0.224469737872
49 1 -0.033665625 -0.00125 0.002953125 1.74019667629e-11
50 1 -0.033665625 -0.00125 0.004134375 0.0
51 1 -0.033665625 -0.00125 0.005315625 0.0
52 1 -0.033665625 -0.00125 0.006496875 0.0
53 1 -0.033665625 -0.00125 0.007678125 0.186171540908
54 1 -0.033665625 -0.00125 0.008859375 0.186171540908
55 1 -0.033665625 -0.00125 0.010040625 0.0
56 1 -0.033665625 -0.00125 0.011221875 0.150411393909
57 1 -0.033665625 -0.00125 0.012403125 0.283624760984
58 1 -0.033665625 -0.00125 0.013584375 1.60752748465e-07
59 1 -0.032484375 -0.00125 -0.018309375 0.00920066229086
60 1 -0.032484375 -0.00125 -0.017128125 1.63558782507e-05
61 1 -0.032484375 -0.00125 -0.015946875 0.0
62 1 -0.032484375 -0.00125 -0.014765625 0.000126657322377
63 1 -0.032484375 -0.00125 -0.013584375 4.96858829207e-05
64 1 -0.032484375 -0.00125 -0.012403125 0.0
65 1 -0.032484375 -0.00125 -0.011221875 0.0
66 1 -0.032484375 -0.00125 -0.010040625 0.0
67 1 -0.032484375 -0.00125 -0.008859375 0.0
68 1 -0.032484375 -0.00125 -0.007678125 0.0
69 1 -0.032484375 -0.00125 -0.006496875 0.0
70 1 -0.032484375 -0.00125 -0.005315625 0.0
71 1 -0.032484375 -0.00125 -0.004134375 0.0
72 1 -0.032484375 -0.00125 -0.002953125 0.0
73 1 -0.032484375 -0.00125 -0.001771875 0.0
74 1 -0.032484375 -0.00125 -0.000590625 0.0322240649786
75 1 -0.032484375 -0.00125 0.000590625 0.350163781038
76 1 -0.032484375 -0.00125 0.001771875 0.0529663073376
77 1 -0.032484375 -0.00125 0.002953125 0.0
78 1 -0.032484375 -0.00125 0.004134375 0.0
79 1 -0.032484375 -0.00125 0.005315625 0.0
80 1 -0.032484375 -0.00125 0.006496875 2.23029178961e-05
81 1 -0.032484375 -0.00125 0.007678125 0.277980481053
82 1 -0.032484375 -0.00125 0.008859375 0.128706688471
83 1 -0.032484375 -0.00125 0.010040625 2.79378975481e-22
84 1 -0.032484375 -0.00125 0.011221875 0.0207856943371
85 1 -0.032484375 -0.00125 0.012403125 0.0187026438913
86 1 -0.032484375 -0.00125 0.013584375 0.0
87 1 -0.032484375 -0.00125 0.014765625 1.95355877578e-05
88 1 -0.032484375 -0.00125 0.015946875 0.00304302781162
89 1 -0.032484375 -0.00125 0.017128125 0.335573622924
90 1 -0.032484375 -0.00125 0.018309375 0.196571483844
91 1 -0.031303125 -0.00125 -0.019490625 0.000209614639352
92 1 -0.031303125 -0.00125 -0.018309375 0.00147478389665
93 1 -0.031303125 -0.00125 -0.017128125 0.0
94 1 -0.031303125 -0.00125 -0.015946875 0.0
95 1 -0.031303125 -0.00125 -0.014765625 0.0443323240644
96 1 -0.031303125 -0.00125 -0.013584375 0.10266433662
97 1 -0.031303125 -0.00125 -0.012403125 1.74019667629e-11
98 1 -0.031303125 -0.00125 -0.011221875 4.52227625942e-06
99 1 -0.031303125 -0.00125 -0.010040625 0.0
100 1 -0.031303125 -0.00125 -0.008859375 0.0
101 1 -0.031303125 -0.00125 -0.007678125 0.0
102 1 -0.031303125 -0.00125 -0.006496875 2.79378975481e-22
103 1 -0.031303125 -0.00125 -0.005315625 0.0
104 1 -0.031303125 -0.00125 -0.004134375 0.0
105 1 -0.031303125 -0.00125 -0.002953125 0.0
106 1 -0.031303125 -0.00125 -0.001771875 6.01557630165e-07
107 1 -0.031303125 -0.00125 -0.000590625 0.167516386218
108 1 -0.031303125 -0.00125 0.000590625 0.091233852548
109 1 -0.031303125 -0.00125 0.001771875 4.42606186288e-05
110 1 -0.031303125 -0.00125 0.002953125 0.0
111 1 -0.031303125 -0.00125 0.004134375 0.0
112 1 -0.031303125 -0.00125 0.005315625 0.0
113 1 -0.031303125 -0.00125 0.006496875 0.0122342600864
114 1 -0.031303125 -0.00125 0.007678125 0.263674497482
115 1 -0.031303125 -0.00125 0.008859375 0.0293069007767
116 1 -0.031303125 -0.00125 0.010040625 1.74019667629e-11
117 1 -0.031303125 -0.00125 0.011221875 0.0
118 1 -0.031303125 -0.00125 0.012403125 0.0
119 1 -0.031303125 -0.00125 0.013584375 2.79378975481e-22
120 1 -0.031303125 -0.00125 0.014765625 1.74019667629e-11
121 1 -0.031303125 -0.00125 0.015946875 0.00249557400626
122 1 -0.031303125 -0.00125 0.017128125 0.263674497482
123 1 -0.031303125 -0.00125 0.018309375 0.178504266497
124 1 -0.031303125 -0.00125 0.019490625 8.50218305249e-07
125 1 -0.030121875 -0.00125 -0.020671875 0.000167490860231
126 1 -0.030121875 -0.00125 -0.019490625 0.000518751829858
127 1 -0.030121875 -0.00125 -0.018309375 6.01557630165e-07
128 1 -0.030121875 -0.00125 -0.017128125 0.0
129 1 -0.030121875 -0.00125 -0.015946875 6.01557630165e-07
130 1 -0.030121875 -0.00125 -0.014765625 0.0243767952624
131 1 -0.030121875 -0.00125 -0.013584375 0.141358161149
132 1 -0.030121875 -0.00125 -0.012403125 0.01386971523
133 1 -0.030121875 -0.00125 -0.011221875 0.0
134 1 -0.030121875 -0.00125 -0.010040625 0.0
135 1 -0.030121875 -0.00125 -0.008859375 0.0
136 1 -0.030121875 -0.00125 -0.007678125 0.0
137 1 -0.030121875 -0.00125 -0.006496875 4.52221866893e-06
138 1 -0.030121875 -0.00125 -0.005315625 4.52220221462e-06
139 1 -0.030121875 -0.00125 -0.004134375 0.0
140 1 -0.030121875 -0.00125 -0.002953125 0.0
141 1 -0.030121875 -0.00125 -0.001771875 1.22156214432e-15
142 1 -0.030121875 -0.00125 -0.000590625 0.0187026692579
143 1 -0.030121875 -0.00125 0.000590625 4.52227625942e-06
144 1 -0.030121875 -0.00125 0.001771875 0.0
145 1 -0.030121875 -0.00125 0.002953125 0.0
146 1 -0.030121875 -0.00125 0.004134375 0.0
147 1 -0.030121875 -0.00125 0.005315625 0.0
148 1 -0.030121875 -0.00125 0.006496875 0.0138697081285
149 1 -0.030121875 -0.00125 0.007678125 0.252716464147
150 1 -0.030121875 -0.00125 0.008859375 0.0
151 1 -0.030121875 -0.00125 0.010040625 0.0
152 1 -0.030121875 -0.00125 0.011221875 0.0
153 1 -0.030121875 -0.00125 0.012403125 0.0
154 1 -0.030121875 -0.00125 0.013584375 2.79378975481e-22
155 1 -0.030121875 -0.00125 0.014765625 1.74019667629e-11
156 1 -0.030121875 -0.00125 0.015946875 4.52220221462e-06
157 1 -0.030121875 -0.00125 0.017128125 0.186171540908
158 1 -0.030121875 -0.00125 0.018309375 0.14929428164
159 1 -0.030121875 -0.00125 0.019490625 0.0
160 1 -0.030121875 -0.00125 0.020671875 0.0
161 1 -0.028940625 -0.00125 -0.021853125 0.0459959987098
162 1 -0.028940625 -0.00125 -0.020671875 0.000245540111831
163 1 -0.028940625 -0.00125 -0.019490625 0.00154812961495
164 1 -0.028940625 -0.00125 -0.018309375 6.01557630165e-07
165 1 -0.028940625 -0.00125 -0.017128125 1.74019667629e-11
166 1 -0.028940625 -0.00125 -0.015946875 0.000126658700522
167 1 -0.028940625 -0.00125 -0.014765625 0.000126658700522
168 1 -0.028940625 -0.00125 -0.013584375 0.139391631779
169 1 -0.028940625 -0.00125 -0.012403125 0.0999860491522
170 1 -0.028940625 -0.00125 -0.011221875 1.74019667629e-11
171 1 -0.028940625 -0.00125 -0.010040625 0.0
172 1 -0.028940625 -0.00125 -0.008859375 0.0
173 1 -0.028940625 -0.00125 -0.007678125 0.0
174 1 -0.028940625 -0.00125 -0.006496875 0.00198208350256
175 1 -0.028940625 -0.00125 -0.005315625 4.52220221462e-06
176 1 -0.028940625 -0.00125 -0.004134375 0.0
177 1 -0.028940625 -0.00125 -0.002953125 1.74019667629e-11
178 1 -0.028940625 -0.00125 -0.001771875 0.0
179 1 -0.028940625 -0.00125 -0.000590625 7.02309649834e-08
180 1 -0.028940625 -0.00125 0.000590625 0.0
181 1 -0.028940625 -0.00125 0.001771875 0.0
182 1 -0.028940625 -0.00125 0.002953125 1.74019667629e-11
183 1 -0.028940625 -0.00125 0.004134375 4.52220221462e-06
184 1 -0.028940625 -0.00125 0.005315625 0.000299131636816
185 1 -0.028940625 -0.00125 0.006496875 0.00198208350256
186 1 -0.028940625 -0.00125 0.007678125 4.52220221462e-06
187 1 -0.028940625 -0.00125 0.008859375 0.0
188 1 -0.028940625 -0.00125 0.010040625 0.0
189 1 -0.028940625 -0.00125 0.011221875 0.0
190 1 -0.028940625 -0.00125 0.012403125 0.0
191 1 -0.028940625 -0.00125 0.013584375 0.0
192 1 -0.028940625 -0.00125 0.014765625 0.0
193 1 -0.028940625 -0.00125 0.015946875 0.000126657572948
194 1 -0.028940625 -0.00125 0.017128125 0.252716464147
195 1 -0.028940625 -0.00125 0.018309375 0.091233852548
196 1 -0.028940625 -0.00125 0.019490625 2.79378975481e-22
197 1 -0.028940625 -0.00125 0.020671875 1.61610918776e-06
198 1 -0.028940625 -0.00125 0.021853125 0.00466864259094
199 1 -0.027759375 -0.00125 -0.024215625 0.0
200 1 -0.027759375 -0.00125 -0.023034375 0.00106278235535
201 1 -0.027759375 -0.00125 -0.021853125 1.18026294841e-10
202 1 -0.027759375 -0.00125 -0.020671875 1.74019667629e-11
203 1 -0.027759375 -0.00125 -0.019490625 7.46384686318e-06
204 1 -0.027759375 -0.00125 -0.018309375 1.74019667629e-11
205 1 -0.027759375 -0.00125 -0.017128125 0.0
206 1 -0.027759375 -0.00125 -0.015946875 0.0
207 1 -0.027759375 -0.00125 -0.014765625 0.0
208 1 -0.027759375 -0.00125 -0.013584375 0.00855160113593
209 1 -0.027759375 -0.00125 -0.012403125 0.321195978177
210 1 -0.027759375 -0.00125 -0.011221875 0.00474645121499
211 1 -0.027759375 -0.00125 -0.010040625 1.74019667629e-11
212 1 -0.027759375 -0.00125 -0.008859375 0.0
213 1 -0.027759375 -0.00125 -0.007678125 0.0
214 1 -0.027759375 -0.00125 -0.006496875 0.000198679956635
215 1 -0.027759375 -0.00125 -0.005315625 0.0293069007767
216 1 -0.027759375 -0.00125 -0.004134375 0.0243767756543
217 1 -0.027759375 -0.00125 -0.002953125 0.00154812961495
218 1 -0.027759375 -0.00125 -0.001771875 0.00154812961495
219 1 -0.027759375 -0.00125 -0.000590625 0.00154812961495
220 1 -0.027759375 -0.00125 0.000590625 4.52220221462e-06
221 1 -0.027759375 -0.00125 0.001771875 1.74019667629e-11
222 1 -0.027759375 -0.00125 0.002953125 1.74019667629e-11
223 1 -0.027759375 -0.00125 0.004134375 0.00249557400626
224 1 -0.027759375 -0.00125 0.005315625 0.000299131636816
225 1 -0.027759375 -0.00125 0.006496875 7.02299466978e-08
226 1 -0.027759375 -0.00125 0.007678125 0.0
227 1 -0.027759375 -0.00125 0.008859375 0.0
228 1 -0.027759375 -0.00125 0.010040625 0.0
229 1 -0.027759375 -0.00125 0.011221875 0.0
230 1 -0.027759375 -0.00125 0.012403125 0.0
231 1 -0.027759375 -0.00125 0.013584375 0.0
232 1 -0.027759375 -0.00125 0.014765625 0.0
233 1 -0.027759375 -0.00125 0.015946875 0.00668184101894
234 1 -0.027759375 -0.00125 0.017128125 0.412738808647
235 1 -0.027759375 -0.00125 0.018309375 0.123928325831
236 1 -0.027759375 -0.00125 0.019490625 2.79378975481e-22
237 1 -0.027759375 -0.00125 0.020671875 1.74019667629e-11
238 1 -0.027759375 -0.00125 0.021853125 0.00147479831613
239 1 -0.027759375 -0.00125 0.023034375 0.00482559872057
240 1 -0.027759375 -0.00125 0.024215625 0.0
241 1 -0.026578125 -0.00125 -0.026578125 0.0
242 1 -0.026578125 -0.00125 -0.025396875 0.0
243 1 -0.026578125 -0.00125 -0.024215625 0.0
244 1 -0.026578125 -0.00125 -0.023034375 0.0
245 1 -0.026578125 -0.00125 -0.021853125 3.14925560351e-13
246 1 -0.026578125 -0.00125 -0.020671875 6.01557630165e-07
247 1 -0.026578125 -0.00125 -0.019490625 0.000696616058092
248 1 -0.026578125 -0.00125 -0.018309375 0.00037578590857
249 1 -0.026578125 -0.00125 -0.017128125 1.5838087899e-05
250 1 -0.026578125 -0.00125 -0.015946875 1.28754471296e-08
251 1 -0.026578125 -0.00125 -0.014765625 2.79378975481e-22
252 1 -0.026578125 -0.00125 -0.013584375 1.77730141666e-06
253 1 -0.026578125 -0.00125 -0.012403125 0.292343226566
254 1 -0.026578125 -0.00125 -0.011221875 0.312303116458
255 1 -0.026578125 -0.00125 -0.010040625 0.00855157475018
256 1 -0.026578125 -0.00125 -0.008859375 0.0
257 1 -0.026578125 -0.00125 -0.007678125 0.0
258 1 -0.026578125 -0.00125 -0.006496875 2.09634609699e-10
259 1 -0.026578125 -0.00125 -0.005315625 0.01386971523
260 1 -0.026578125 -0.00125 -0.004134375 0.0122342732579
261 1 -0.026578125 -0.00125 -0.002953125 0.00118682600863
262 1 -0.026578125 -0.00125 -0.001771875 7.69885813891e-05
263 1 -0.026578125 -0.00125 -0.000590625 5.70468513838e-08
264 1 -0.026578125 -0.00125 0.000590625 1.74015893176e-11
265 1 -0.026578125 -0.00125 0.001771875 7.02299466978e-08
266 1 -0.026578125 -0.00125 0.002953125 7.02299466978e-08
267 1 -0.026578125 -0.00125 0.004134375 0.0
268 1 -0.026578125 -0.00125 0.005315625 0.0
269 1 -0.026578125 -0.00125 0.006496875 0.0
270 1 -0.026578125 -0.00125 0.007678125 0.0
271 1 -0.026578125 -0.00125 0.008859375 0.0
272 1 -0.026578125 -0.00125 0.010040625 0.0
273 1 -0.026578125 -0.00125 0.011221875 0.0
274 1 -0.026578125 -0.00125 0.012403125 0.0
275 1 -0.026578125 -0.00125 0.013584375 0.0
276 1 -0.026578125 -0.00125 0.014765625 0.0
277 1 -0.026578125 -0.00125 0.015946875 0.06007667973
278 1 -0.026578125 -0.00125 0.017128125 0.430636140753
279 1 -0.026578125 -0.00125 0.018309375 0.0844389823853
280 1 -0.026578125 -0.00125 0.019490625 3.14925560351e-13
281 1 -0.026578125 -0.00125 0.020671875 0.0
282 1 -0.026578125 -0.00125 0.021853125 0.0
283 1 -0.026578125 -0.00125 0.023034375 0.000126658700522
284 1 -0.026578125 -0.00125 0.024215625 2.16149781974e-05
285 1 -0.026578125 -0.00125 0.025396875 6.75206640964e-05
286 1 -0.026578125 -0.00125 0.026578125 0.000572971535964
287 1 -0.025396875 -0.00125 -0.026578125 0.0
288 1 -0.025396875 -0.00125 -0.025396875 0.0
289 1 -0.025396875 -0.00125 -0.024215625 0.0
290 1 -0.025396875 -0.00125 -0.023034375 0.0
291 1 -0.025396875 -0.00125 -0.021853125 0.0
292 1 -0.025396875 -0.00125 -0.020671875 1.74019667629e-11
293 1 -0.025396875 -0.00125 -0.019490625 0.00118682874801
294 1 -0.025396875 -0.00125 -0.018309375 0.000126658700522
295 1 -0.025396875 -0.00125 -0.017128125 0.0243767756543
296 1 -0.025396875 -0.00125 -0.015946875 0.0293069224194
297 1 -0.025396875 -0.00125 -0.014765625 0.0243767756543
298 1 -0.025396875 -0.00125 -0.013584375 5.56343983788e-05
299 1 -0.025396875 -0.00125 -0.012403125 0.00668184101894
300 1 -0.025396875 -0.00125 -0.011221875 0.470910937833
301 1 -0.025396875 -0.00125 -0.010040625 0.123928325831
302 1 -0.025396875 -0.00125 -0.008859375 1.74019667629e-11
303 1 -0.025396875 -0.00125 -0.007678125 0.0
304 1 -0.025396875 -0.00125 -0.006496875 0.00228022268595
305 1 -0.025396875 -0.00125 -0.005315625 0.0550579642476
306 1 -0.025396875 -0.00125 -0.004134375 0.224469737872
307 1 -0.025396875 -0.00125 -0.002953125 0.21372123369
308 1 -0.025396875 -0.00125 -0.001771875 0.091233852548
309 1 -0.025396875 -0.00125 -0.000590625 0.000891017573599
310 1 -0.025396875 -0.00125 0.000590625 2.79378975481e-22
311 1 -0.025396875 -0.00125 0.001771875 0.0
312 1 -0.025396875 -0.00125 0.002953125 0.0175125891118
313 1 -0.025396875 -0.00125 0.004134375 0.00668182974929
314 1 -0.025396875 -0.00125 0.005315625 0.00154812961495
315 1 -0.025396875 -0.00125 0.006496875 2.79378975481e-22
316 1 -0.025396875 -0.00125 0.007678125 0.0
317 1 -0.025396875 -0.00125 0.008859375 0.0
318 1 -0.025396875 -0.00125 0.010040625 0.0
319 1 -0.025396875 -0.00125 0.011221875 0.0
320 1 -0.025396875 -0.00125 0.012403125 0.0
321 1 -0.025396875 -0.00125 0.013584375 0.0
322 1 -0.025396875 -0.00125 0.014765625 0.0
323 1 -0.025396875 -0.00125 0.015946875 0.114532075754
324 1 -0.025396875 -0.00125 0.017128125 0.482099221396
325 1 -0.025396875 -0.00125 0.018309375 0.000126657572948
326 1 -0.025396875 -0.00125 0.019490625 0.0
327 1 -0.025396875 -0.00125 0.020671875 0.0
328 1 -0.025396875 -0.00125 0.021853125 0.000126658700522
329 1 -0.025396875 -0.00125 0.023034375 0.000126658700522
330 1 -0.025396875 -0.00125 0.024215625 0.000126658700522
331 1 -0.025396875 -0.00125 0.025396875 1.74019667629e-11
332 1 -0.025396875 -0.00125 0.026578125 0.0
333 1 -0.024215625 -0.00125 -0.027759375 0.0
334 1 -0.024215625 -0.00125 -0.026578125 0.0
335 1 -0.024215625 -0.00125 -0.025396875 0.0
336 1 -0.024215625 -0.00125 -0.024215625 0.0
337 1 -0.024215625 -0.00125 -0.023034375 0.0
338 1 -0.024215625 -0.00125 -0.021853125 0.0
339 1 -0.024215625 -0.00125 -0.020671875 1.74019667629e-11
340 1 -0.024215625 -0.00125 -0.019490625 1.28754471296e-08
341 1 -0.024215625 -0.00125 -0.018309375 0.00154813293271
342 1 -0.024215625 -0.00125 -0.017128125 0.00474645121499
343 1 -0.024215625 -0.00125 -0.015946875 0.0443322841124
344 1 -0.024215625 -0.00125 -0.014765625 0.0243767756543
345 1 -0.024215625 -0.00125 -0.013584375 0.0293069224194
346 1 -0.024215625 -0.00125 -0.012403125 0.000126658700522
347 1 -0.024215625 -0.00125 -0.011221875 0.186171540908
348 1 -0.024215625 -0.00125 -0.010040625 0.372493358291
349 1 -0.024215625 -0.00125 -0.008859375 0.0138696939255
350 1 -0.024215625 -0.00125 -0.007678125 1.74019667629e-11
351 1 -0.024215625 -0.00125 -0.006496875 0.00566000214566
352 1 -0.024215625 -0.00125 -0.005315625 0.000891023127979
353 1 -0.024215625 -0.00125 -0.004134375 0.0243767952624
354 1 -0.024215625 -0.00125 -0.002953125 0.14929428164
355 1 -0.024215625 -0.00125 -0.001771875 0.310081568404
356 1 -0.024215625 -0.00125 -0.000590625 0.14929428164
357 1 -0.024215625 -0.00125 0.000590625 0.14929428164
358 1 -0.024215625 -0.00125 0.001771875 0.114532075754
359 1 -0.024215625 -0.00125 0.002953125 0.123928325831
360 1 -0.024215625 -0.00125 0.004134375 0.0243767952624
361 1 -0.024215625 -0.00125 0.005315625 0.01386971523
362 1 -0.024215625 -0.00125 0.006496875 1.58379826604e-05
363 1 -0.024215625 -0.00125 0.007678125 0.0
364 1 -0.024215625 -0.00125 0.008859375 0.0
365 1 -0.024215625 -0.00125 0.010040625 0.0
366 1 -0.024215625 -0.00125 0.011221875 1.74019667629e-11
367 1 -0.024215625 -0.00125 0.012403125 1.74019667629e-11
368 1 -0.024215625 -0.00125 0.013584375 0.0
369 1 -0.024215625 -0.00125 0.014765625 1.74019667629e-11
370 1 -0.024215625 -0.00125 0.015946875 0.14929428164
371 1 -0.024215625 -0.00125 0.017128125 0.252716464147
372 1 -0.024215625 -0.00125 0.018309375 1.74019667629e-11
373 1 -0.024215625 -0.00125 0.019490625 2.79378975481e-22
374 1 -0.024215625 -0.00125 0.020671875 6.01557630165e-07
375 1 -0.024215625 -0.00125 0.021853125 0.000126658700522
376 1 -0.024215625 -0.00125 0.023034375 0.0138696939255
377 1 -0.024215625 -0.00125 0.024215625 0.00474645121499
378 1 -0.024215625 -0.00125 0.025396875 6.01557630165e-07
379 1 -0.024215625 -0.00125 0.026578125 2.79378975481e-22
380 1 -0.024215625 -0.00125 0.027759375 0.0
381 1 -0.023034375 -0.00125 -0.027759375 0.00106278235535
382 1 -0.023034375 -0.00125 -0.026578125 0.0
383 1 -0.023034375 -0.00125 -0.025396875 0.0
384 1 -0.023034375 -0.00125 -0.024215625 0.0
385 1 -0.023034375 -0.00125 -0.023034375 0.0
386 1 -0.023034375 -0.00125 -0.021853125 0.0
387 1 -0.023034375 -0.00125 -0.020671875 1.74019667629e-11
388 1 -0.023034375 -0.00125 -0.019490625 1.74019667629e-11
389 1 -0.023034375 -0.00125 -0.018309375 6.01557630165e-07
390 1 -0.023034375 -0.00125 -0.017128125 4.42606186288e-05
391 1 -0.023034375 -0.00125 -0.015946875 0.00474645121499
392 1 -0.023034375 -0.00125 -0.014765625 0.0138696939255
393 1 -0.023034375 -0.00125 -0.013584375 0.0564721545756
394 1 -0.023034375 -0.00125 -0.012403125 0.0912339065983
395 1 -0.023034375 -0.00125 -0.011221875 0.252716464147
396 1 -0.023034375 -0.00125 -0.010040625 0.224469737872
397 1 -0.023034375 -0.00125 -0.008859375 0.00249557400626
398 1 -0.023034375 -0.00125 -0.007678125 1.74019667629e-11
399 1 -0.023034375 -0.00125 -0.006496875 3.07877004318e-05
400 1 -0.023034375 -0.00125 -0.005315625 4.52220221462e-06
401 1 -0.023034375 -0.00125 -0.004134375 1.74019667629e-11
402 1 -0.023034375 -0.00125 -0.002953125 0.000126657572948
403 1 -0.023034375 -0.00125 -0.001771875 0.0746186412079
404 1 -0.023034375 -0.00125 -0.000590625 0.361324541927
405 1 -0.023034375 -0.00125 0.000590625 0.419449809004
406 1 -0.023034375 -0.00125 0.001771875 0.339012100871
407 1 -0.023034375 -0.00125 0.002953125 0.287918627825
408 1 -0.023034375 -0.00125 0.004134375 0.17575893658
409 1 -0.023034375 -0.00125 0.005315625 0.252716464147
410 1 -0.023034375 -0.00125 0.006496875 0.100876120002
411 1 -0.023034375 -0.00125 0.007678125 0.0107214510125
412 1 -0.023034375 -0.00125 0.008859375 0.0243767756543
413 1 -0.023034375 -0.00125 0.010040625 0.0443322841124
414 1 -0.023034375 -0.00125 0.011221875 0.0912339065983
415 1 -0.023034375 -0.00125 0.012403125 0.00249557400626
416 1 -0.023034375 -0.00125 0.013584375 1.74014005978e-11
417 1 -0.023034375 -0.00125 0.014765625 1.74019667629e-11
418 1 -0.023034375 -0.00125 0.015946875 0.332327069371
419 1 -0.023034375 -0.00125 0.017128125 0.186171540908
420 1 -0.023034375 -0.00125 0.018309375 1.22156214432e-15
421 1 -0.023034375 -0.00125 0.019490625 0.000126658700522
422 1 -0.023034375 -0.00125 0.020671875 0.000126658700522
423 1 -0.023034375 -0.00125 0.021853125 0.0138696939255
424 1 -0.023034375 -0.00125 0.023034375 0.0293069007767
425 1 -0.023034375 -0.00125 0.024215625 0.00154813293271
426 1 -0.023034375 -0.00125 0.025396875 6.01557630165e-07
427 1 -0.023034375 -0.00125 0.026578125 1.28754471296e-08
428 1 -0.023034375 -0.00125 0.027759375 0.00106278235535
429 1 -0.021853125 -0.00125 -0.028940625 0.315788336106
430 1 -0.021853125 -0.00125 -0.027759375 0.249631508666
431 1 -0.021853125 -0.00125 -0.026578125 0.0034987411085
432 1 -0.021853125 -0.00125 -0.025396875 0.000891023127979
433 1 -0.021853125 -0.00125 -0.024215625 6.01557630165e-07
434 1 -0.021853125 -0.00125 -0.023034375 6.01557630165e-07
435 1 -0.021853125 -0.00125 -0.021853125 1.74019667629e-11
436 1 -0.021853125 -0.00125 -0.020671875 4.52227625942e-06
437 1 -0.021853125 -0.00125 -0.019490625 2.79378975481e-22
438 1 -0.021853125 -0.00125 -0.018309375 1.22156214432e-15
439 1 -0.021853125 -0.00125 -0.017128125 0.000891023127979
440 1 -0.021853125 -0.00125 -0.015946875 0.0138696939255
441 1 -0.021853125 -0.00125 -0.014765625 0.0138696939255
442 1 -0.021853125 -0.00125 -0.013584375 0.0138696939255
443 1 -0.021853125 -0.00125 -0.012403125 0.0698876802493
444 1 -0.021853125 -0.00125 -0.011221875 0.40155560828
445 1 -0.021853125 -0.00125 -0.010040625 0.224469737872
446 1 -0.021853125 -0.00125 -0.008859375 0.000126657572948
447 1 -0.021853125 -0.00125 -0.007678125 1.74019667629e-11
448 1 -0.021853125 -0.00125 -0.006496875 7.02309649834e-08
449 1 -0.021853125 -0.00125 -0.005315625 0.000126657572948
450 1 -0.021853125 -0.00125 -0.004134375 0.000299131636816
451 1 -0.021853125 -0.00125 -0.002953125 0.000126657572948
452 1 -0.021853125 -0.00125 -0.001771875 0.123928325831
453 1 -0.021853125 -0.00125 -0.000590625 0.239631345845
454 1 -0.021853125 -0.00125 0.000590625 0.189842080442
455 1 -0.021853125 -0.00125 0.001771875 0.401555093596
456 1 -0.021853125 -0.00125 0.002953125 0.390374014268
457 1 -0.021853125 -0.00125 0.004134375 0.401555093596
458 1 -0.021853125 -0.00125 0.005315625 0.5
459 1 -0.021853125 -0.00125 0.006496875 0.5
460 1 -0.021853125 -0.00125 0.007678125 0.350163267536
461 1 -0.021853125 -0.00125 0.008859375 0.186171540908
462 1 -0.021853125 -0.00125 0.010040625 0.263674497482
463 1 -0.021853125 -0.00125 0.011221875 0.0381872649833
464 1 -0.021853125 -0.00125 0.012403125 0.00668184101894
465 1 -0.021853125 -0.00125 0.013584375 7.02299466978e-08
466 1 -0.021853125 -0.00125 0.014765625 0.0107214510125
467 1 -0.021853125 -0.00125 0.015946875 0.580549910179
468 1 -0.021853125 -0.00125 0.017128125 0.21372123369
469 1 -0.021853125 -0.00125 0.018309375 0.00154813293271
470 1 -0.021853125 -0.00125 0.019490625 0.0138697081285
471 1 -0.021853125 -0.00125 0.020671875 0.00474645121499
472 1 -0.021853125 -0.00125 0.021853125 0.0138696939255
473 1 -0.021853125 -0.00125 0.023034375 0.00474645121499
474 1 -0.021853125 -0.00125 0.024215625 0.0138696939255
475 1 -0.021853125 -0.00125 0.025396875 1.74019667629e-11
476 1 -0.021853125 -0.00125 0.026578125 0.0
477 1 -0.021853125 -0.00125 0.027759375 0.000245543891342
478 1 -0.021853125 -0.00125 0.028940625 0.00466864259094
479 1 -0.020671875 -0.00125 -0.030121875 0.000167490860231
480 1 -0.020671875 -0.00125 -0.028940625 0.0328183764962
481 1 -0.020671875 -0.00125 -0.027759375 0.361325055821
482 1 -0.020671875 -0.00125 -0.026578125 0.505594105103
483 1 -0.020671875 -0.00125 -0.025396875 0.350163267536
484 1 -0.020671875 -0.00125 -0.024215625 0.252716464147
485 1 -0.020671875 -0.00125 -0.023034375 0.0999860491522
486 1 -0.020671875 -0.00125 -0.021853125 0.00668182974929
487 1 -0.020671875 -0.00125 -0.020671875 0.00668184101894
488 1 -0.020671875 -0.00125 -0.019490625 0.00855157475018
489 1 -0.020671875 -0.00125 -0.018309375 0.00474645121499
490 1 -0.020671875 -0.00125 -0.017128125 0.00154813293271
491 1 -0.020671875 -0.00125 -0.015946875 0.00154813293271
492 1 -0.020671875 -0.00125 -0.014765625 0.0138696939255
493 1 -0.020671875 -0.00125 -0.013584375 0.0138696939255
494 1 -0.020671875 -0.00125 -0.012403125 0.0622852495443
495 1 -0.020671875 -0.00125 -0.011221875 0.412738808647
496 1 -0.020671875 -0.00125 -0.010040625 0.587261144554
497 1 -0.020671875 -0.00125 -0.008859375 0.186171540908
498 1 -0.020671875 -0.00125 -0.007678125 0.123928365601
499 1 -0.020671875 -0.00125 -0.006496875 0.0138697578391
500 1 -0.020671875 -0.00125 -0.005315625 0.000299131636816
501 1 -0.020671875 -0.00125 -0.004134375 0.01386971523
502 1 -0.020671875 -0.00125 -0.002953125 0.00668182974929
503 1 -0.020671875 -0.00125 -0.001771875 0.0550579936718
504 1 -0.020671875 -0.00125 -0.000590625 0.124308818945
505 1 -0.020671875 -0.00125 0.000590625 0.269169435656
506 1 -0.020671875 -0.00125 0.001771875 0.332326556717
507 1 -0.020671875 -0.00125 0.002953125 0.40155560828
508 1 -0.020671875 -0.00125 0.004134375 0.406028743574
509 1 -0.020671875 -0.00125 0.005315625 0.285707764144
510 1 -0.020671875 -0.00125 0.006496875 0.297879916303
511 1 -0.020671875 -0.00125 0.007678125 0.235286796702
512 1 -0.020671875 -0.00125 0.008859375 0.169569831299
513 1 -0.020671875 -0.00125 0.010040625 0.0622852495443
514 1 -0.020671875 -0.00125 0.011221875 0.000299132858986
515 1 -0.020671875 -0.00125 0.012403125 0.0
516 1 -0.020671875 -0.00125 0.013584375 1.74019667629e-11
517 1 -0.020671875 -0.00125 0.014765625 0.14929428164
518 1 -0.020671875 -0.00125 0.015946875 0.736325502518
519 1 -0.020671875 -0.00125 0.017128125 0.196692230435
520 1 -0.020671875 -0.00125 0.018309375 0.0443322841124
521 1 -0.020671875 -0.00125 0.019490625 0.0564723182317
522 1 -0.020671875 -0.00125 0.020671875 0.0293069007767
523 1 -0.020671875 -0.00125 0.021853125 0.0138696939255
524 1 -0.020671875 -0.00125 0.023034375 0.00154813293271
525 1 -0.020671875 -0.00125 0.024215625 0.000126658700522
526 1 -0.020671875 -0.00125 0.025396875 0.000126658700522
527 1 -0.020671875 -0.00125 0.026578125 0.0
528 1 -0.020671875 -0.00125 0.027759375 0.0
529 1 -0.020671875 -0.00125 0.028940625 8.26663545308e-15
530 1 -0.020671875 -0.00125 0.030121875 2.52587523623e-07
531 1 -0.019490625 -0.00125 -0.031303125 8.50218305249e-07
532 1 -0.019490625 -0.00125 -0.030121875 0.0
533 1 -0.019490625 -0.00125 -0.028940625 3.14925560351e-13
534 1 -0.019490625 -0.00125 -0.027759375 1.58378774223e-05
535 1 -0.019490625 -0.00125 -0.026578125 0.0130365685944
536 1 -0.019490625 -0.00125 -0.025396875 0.00474644221021
537 1 -0.019490625 -0.00125 -0.024215625 0.0802909760582
538 1 -0.019490625 -0.00125 -0.023034375 0.25819045263
539 1 -0.019490625 -0.00125 -0.021853125 0.292342995029
540 1 -0.019490625 -0.00125 -0.020671875 0.258189948267
541 1 -0.019490625 -0.00125 -0.019490625 0.270819762838
542 1 -0.019490625 -0.00125 -0.018309375 0.297879916303
543 1 -0.019490625 -0.00125 -0.017128125 0.326759914968
544 1 -0.019490625 -0.00125 -0.015946875 0.277980481053
545 1 -0.019490625 -0.00125 -0.014765625 0.119202686097
546 1 -0.019490625 -0.00125 -0.013584375 0.0267809887061
547 1 -0.019490625 -0.00125 -0.012403125 0.0293069007767
548 1 -0.019490625 -0.00125 -0.011221875 0.186171540908
549 1 -0.019490625 -0.00125 -0.010040625 0.566007953502
550 1 -0.019490625 -0.00125 -0.008859375 0.604035342861
551 1 -0.019490625 -0.00125 -0.007678125 0.543633176602
552 1 -0.019490625 -0.00125 -0.006496875 0.233118576934
553 1 -0.019490625 -0.00125 -0.005315625 0.00668183425715
554 1 -0.019490625 -0.00125 -0.004134375 5.56342681978e-05
555 1 -0.019490625 -0.00125 -0.002953125 0.000126656946521
556 1 -0.019490625 -0.00125 -0.001771875 0.0138697578391
557 1 -0.019490625 -0.00125 -0.000590625 0.0342669271682
558 1 -0.019490625 -0.00125 0.000590625 0.0415119754381