ITEM: TIMESTEP
0
ITEM: NUMBER OF ATOMS
3080
ITEM: BOX BOUNDS ss ss ss
-3.7007399999999996e-02 3.7007399999999996e-02
-2.0002499999999999e-03 2.5000000000000004e-07
-3.7007399999999996e-02 3.7007399999999996e-02
ITEM: ATOMS id type x y z c_1
0 1 -0.037209375 -0.00125 -0.000590625 0.0
1 1 -0.036028125 -0.00125 -0.007678125 0.0
2 1 -0.036028125 -0.00125 -0.006496875 0.0
3 1 -0.036028125 -0.00125 -0.005315625 0.0
4 1 -0.036028125 -0.00125 -0.004134375 0.0
5 1 -0.036028125 -0.00125 -0.002953125 0.00021629040297
6 1 -0.036028125 -0.00125 -0.001771875 0.226627684957
7 1 -0.036028125 -0.00125 -0.000590625 0.00482559872057
8 1 -0.036028125 -0.00125 0.000590625 0.182529172436
9 1 -0.036028125 -0.00125 0.001771875 0.226627684957
10 1 -0.036028125 -0.00125 0.002953125 4.42606186288e-05
11 1 -0.036028125 -0.00125 0.004134375 0.0
12 1 -0.036028125 -0.00125 0.005315625 0.0
13 1 -0.036028125 -0.00125 0.006496875 0.0
14 1 -0.036028125 -0.00125 0.007678125 0.000455413315469
15 1 -0.034846875 -0.00125 -0.011221875 0.0
16 1 -0.034846875 -0.00125 -0.010040625 0.0
17 1 -0.034846875 -0.00125 -0.008859375 0.0
18 1 -0.034846875 -0.00125 -0.007678125 0.0
19 1 -0.034846875 -0.00125 -0.006496875 0.0
20 1 -0.034846875 -0.00125 -0.005315625 0.0
21 1 -0.034846875 -0.00125 -0.004134375 4.42606186288e-05
22 1 -0.034846875 -0.00125 -0.002953125 0.0381872278205
23 1 -0.034846875 -0.00125 -0.001771875 0.224469737872
24 1 -0.034846875 -0.00125 -0.000590625 0.00228020850123
25 1 -0.034846875 -0.00125 0.000590625 0.091233852548
26 1 -0.034846875 -0.00125 0.001771875 0.292342717184
27 1 -0.034846875 -0.00125 0.002953125 0.0293069007767
28 1 -0.034846875 -0.00125 0.004134375 0.0
29 1 -0.034846875 -0.00125 0.005315625 0.0
30 1 -0.034846875 -0.00125 0.006496875 0.0
31 1 -0.034846875 -0.00125 0.007678125 1.18026294841e-10
32 1 -0.034846875 -0.00125 0.008859375 0.0180058544457
33 1 -0.034846875 -0.00125 0.010040625 0.0
34 1 -0.034846875 -0.00125 0.011221875 0.00920066229086
35 1 -0.033665625 -0.00125 -0.013584375 0.0
36 1 -0.033665625 -0.00125 -0.012403125 0.0
37 1 -0.033665625 -0.00125 -0.011221875 0.0
38 1 -0.033665625 -0.00125 -0.010040625 0.0
39 1 -0.033665625 -0.00125 -0.008859375 0.0
40 1 -0.033665625 -0.00125 -0.007678125 0.0
41 1 -0.033665625 -0.00125 -0.006496875 0.0
42 1 -0.033665625 -0.00125 -0.005315625 0.0
43 1 -0.033665625 -0.00125 -0.004134375 0.000126657572948
44 1 -0.033665625 -0.00125 -0.002953125 0.263674497482
45 1 -0.033665625 -0.00125 -0.001771875 0.159358746116
46 1 -0.033665625 -0.00125 -0.000590625 4.4261376489e-05
47 1 -0.033665625 -0.00125 0.000590625 0.123928325831
48 1 -0.033665625 -0.00125 0.001771875 0.343471904739
49 1 -0.033665625 -0.00125 0.002953125 0.0199375341518
50 1 -0.033665625 -0.00125 0.004134375 6.01557630165e-07
51 1 -0.033665625 -0.00125 0.005315625 0.0
52 1 -0.033665625 -0.00125 0.006496875 0.0
53 1 -0.033665625 -0.00125 0.007678125 0.0
54 1 -0.033665625 -0.00125 0.008859375 4.52227625942e-06
55 1 -0.033665625 -0.00125 0.010040625 0.000126658700522
56 1 -0.033665625 -0.00125 0.011221875 0.112788508618
57 1 -0.033665625 -0.00125 0.012403125 0.232375684815
58 1 -0.033665625 -0.00125 0.013584375 0.0
59 1 -0.032484375 -0.00125 -0.018309375 0.0
60 1 -0.032484375 -0.00125 -0.017128125 1.63558782507e-05
61 1 -0.032484375 -0.00125 -0.015946875 0.0606740107323
62 1 -0.032484375 -0.00125 -0.014765625 0.0193204135925
63 1 -0.032484375 -0.00125 -0.013584375 0.0
64 1 -0.032484375 -0.00125 -0.012403125 0.0
65 1 -0.032484375 -0.00125 -0.011221875 0.0
66 1 -0.032484375 -0.00125 -0.010040625 0.0
67 1 -0.032484375 -0.00125 -0.008859375 0.0
68 1 -0.032484375 -0.00125 -0.007678125 0.0
69 1 -0.032484375 -0.00125 -0.006496875 0.0
70 1 -0.032484375 -0.00125 -0.005315625 0.0
71 1 -0.032484375 -0.00125 -0.004134375 0.0011868239541
72 1 -0.032484375 -0.00125 -0.002953125 0.172658474079
73 1 -0.032484375 -0.00125 -0.001771875 0.0802910448215
74 1 -0.032484375 -0.00125 -0.000590625 6.56184462713e-05
75 1 -0.032484375 -0.00125 0.000590625 0.114531842656
76 1 -0.032484375 -0.00125 0.001771875 0.281290216208
77 1 -0.032484375 -0.00125 0.002953125 0.0802910104399
78 1 -0.032484375 -0.00125 0.004134375 1.28754471296e-08
79 1 -0.032484375 -0.00125 0.005315625 0.0
80 1 -0.032484375 -0.00125 0.006496875 0.0
81 1 -0.032484375 -0.00125 0.007678125 0.0
82 1 -0.032484375 -0.00125 0.008859375 0.0
83 1 -0.032484375 -0.00125 0.010040625 2.79378975481e-22
84 1 -0.032484375 -0.00125 0.011221875 0.0138697081285
85 1 -0.032484375 -0.00125 0.012403125 0.0187026438913
86 1 -0.032484375 -0.00125 0.013584375 0.0
87 1 -0.032484375 -0.00125 0.014765625 0.0
88 1 -0.032484375 -0.00125 0.015946875 0.0
89 1 -0.032484375 -0.00125 0.017128125 0.0
90 1 -0.032484375 -0.00125 0.018309375 0.0
91 1 -0.031303125 -0.00125 -0.019490625 0.0
92 1 -0.031303125 -0.00125 -0.018309375 0.0
93 1 -0.031303125 -0.00125 -0.017128125 1.74019667629e-11
94 1 -0.031303125 -0.00125 -0.015946875 0.114532075754
95 1 -0.031303125 -0.00125 -0.014765625 0.091233852548
96 1 -0.031303125 -0.00125 -0.013584375 0.0
97 1 -0.031303125 -0.00125 -0.012403125 0.0
98 1 -0.031303125 -0.00125 -0.011221875 0.0
99 1 -0.031303125 -0.00125 -0.010040625 0.0
100 1 -0.031303125 -0.00125 -0.008859375 0.0
101 1 -0.031303125 -0.00125 -0.007678125 0.0
102 1 -0.031303125 -0.00125 -0.006496875 0.0
103 1 -0.031303125 -0.00125 -0.005315625 0.0
104 1 -0.031303125 -0.00125 -0.004134375 0.00474645121499
105 1 -0.031303125 -0.00125 -0.002953125 0.175758893257
106 1 -0.031303125 -0.00125 -0.001771875 0.0381872649833
107 1 -0.031303125 -0.00125 -0.000590625 0.00065338949209
108 1 -0.031303125 -0.00125 0.000590625 0.196692230435
109 1 -0.031303125 -0.00125 0.001771875 0.123928325831
110 1 -0.031303125 -0.00125 0.002953125 6.01557630165e-07
111 1 -0.031303125 -0.00125 0.004134375 0.0
112 1 -0.031303125 -0.00125 0.005315625 0.0
113 1 -0.031303125 -0.00125 0.006496875 0.0
114 1 -0.031303125 -0.00125 0.007678125 0.0
115 1 -0.031303125 -0.00125 0.008859375 0.0
116 1 -0.031303125 -0.00125 0.010040625 0.0
117 1 -0.031303125 -0.00125 0.011221875 0.0
118 1 -0.031303125 -0.00125 0.012403125 1.74019667629e-11
119 1 -0.031303125 -0.00125 0.013584375 0.0
120 1 -0.031303125 -0.00125 0.014765625 0.0
121 1 -0.031303125 -0.00125 0.015946875 0.0
122 1 -0.031303125 -0.00125 0.017128125 0.0
123 1 -0.031303125 -0.00125 0.018309375 0.0
124 1 -0.031303125 -0.00125 0.019490625 0.0
125 1 -0.030121875 -0.00125 -0.020671875 0.0
126 1 -0.030121875 -0.00125 -0.019490625 0.0
127 1 -0.030121875 -0.00125 -0.018309375 0.0
128 1 -0.030121875 -0.00125 -0.017128125 1.22156214432e-15
129 1 -0.030121875 -0.00125 -0.015946875 0.091233852548
130 1 -0.030121875 -0.00125 -0.014765625 0.091233852548
131 1 -0.030121875 -0.00125 -0.013584375 0.0
132 1 -0.030121875 -0.00125 -0.012403125 0.0
133 1 -0.030121875 -0.00125 -0.011221875 0.0
134 1 -0.030121875 -0.00125 -0.010040625 0.0
135 1 -0.030121875 -0.00125 -0.008859375 0.0
136 1 -0.030121875 -0.00125 -0.007678125 0.0
137 1 -0.030121875 -0.00125 -0.006496875 0.0
138 1 -0.030121875 -0.00125 -0.005315625 0.0
139 1 -0.030121875 -0.00125 -0.004134375 1.74019667629e-11
140 1 -0.030121875 -0.00125 -0.002953125 0.000126657572948
141 1 -0.030121875 -0.00125 -0.001771875 0.000126658700522
142 1 -0.030121875 -0.00125 -0.000590625 0.00424847766901
143 1 -0.030121875 -0.00125 0.000590625 0.175758893257
144 1 -0.030121875 -0.00125 0.001771875 0.0827704306511
145 1 -0.030121875 -0.00125 0.002953125 6.01557630165e-07
146 1 -0.030121875 -0.00125 0.004134375 0.0
147 1 -0.030121875 -0.00125 0.005315625 0.0
148 1 -0.030121875 -0.00125 0.006496875 0.0
149 1 -0.030121875 -0.00125 0.007678125 0.0
150 1 -0.030121875 -0.00125 0.008859375 0.0
151 1 -0.030121875 -0.00125 0.010040625 0.0
152 1 -0.030121875 -0.00125 0.011221875 0.0
153 1 -0.030121875 -0.00125 0.012403125 0.0
154 1 -0.030121875 -0.00125 0.013584375 0.0
155 1 -0.030121875 -0.00125 0.014765625 0.0
156 1 -0.030121875 -0.00125 0.015946875 0.0
157 1 -0.030121875 -0.00125 0.017128125 0.0
158 1 -0.030121875 -0.00125 0.018309375 0.0
159 1 -0.030121875 -0.00125 0.019490625 0.0
160 1 -0.030121875 -0.00125 0.020671875 0.0
161 1 -0.028940625 -0.00125 -0.021853125 0.0
162 1 -0.028940625 -0.00125 -0.020671875 0.0
163 1 -0.028940625 -0.00125 -0.019490625 0.0
164 1 -0.028940625 -0.00125 -0.018309375 0.0
165 1 -0.028940625 -0.00125 -0.017128125 0.0
166 1 -0.028940625 -0.00125 -0.015946875 0.175758893257
167 1 -0.028940625 -0.00125 -0.014765625 0.091233852548
168 1 -0.028940625 -0.00125 -0.013584375 0.0
169 1 -0.028940625 -0.00125 -0.012403125 0.0
170 1 -0.028940625 -0.00125 -0.011221875 0.0
171 1 -0.028940625 -0.00125 -0.010040625 0.0
172 1 -0.028940625 -0.00125 -0.008859375 0.0
173 1 -0.028940625 -0.00125 -0.007678125 0.0
174 1 -0.028940625 -0.00125 -0.006496875 0.0
175 1 -0.028940625 -0.00125 -0.005315625 0.0
176 1 -0.028940625 -0.00125 -0.004134375 0.0
177 1 -0.028940625 -0.00125 -0.002953125 0.0
178 1 -0.028940625 -0.00125 -0.001771875 0.0
179 1 -0.028940625 -0.00125 -0.000590625 1.10349843168e-18
180 1 -0.028940625 -0.00125 0.000590625 1.82076008727e-05
181 1 -0.028940625 -0.00125 0.001771875 4.52227625942e-06
182 1 -0.028940625 -0.00125 0.002953125 0.0
183 1 -0.028940625 -0.00125 0.004134375 0.0
184 1 -0.028940625 -0.00125 0.005315625 0.0
185 1 -0.028940625 -0.00125 0.006496875 0.0
186 1 -0.028940625 -0.00125 0.007678125 0.0
187 1 -0.028940625 -0.00125 0.008859375 0.0
188 1 -0.028940625 -0.00125 0.010040625 0.0
189 1 -0.028940625 -0.00125 0.011221875 0.0
190 1 -0.028940625 -0.00125 0.012403125 0.0
191 1 -0.028940625 -0.00125 0.013584375 0.0
192 1 -0.028940625 -0.00125 0.014765625 0.0
193 1 -0.028940625 -0.00125 0.015946875 0.0
194 1 -0.028940625 -0.00125 0.017128125 0.0
195 1 -0.028940625 -0.00125 0.018309375 0.0
196 1 -0.028940625 -0.00125 0.019490625 3.14925560351e-13
197 1 -0.028940625 -0.00125 0.020671875 1.61610918776e-06
198 1 -0.028940625 -0.00125 0.021853125 0.00466864259094
199 1 -0.027759375 -0.00125 -0.024215625 0.0
200 1 -0.027759375 -0.00125 -0.023034375 0.0
201 1 -0.027759375 -0.00125 -0.021853125 0.0
202 1 -0.027759375 -0.00125 -0.020671875 0.0
203 1 -0.027759375 -0.00125 -0.019490625 0.0
204 1 -0.027759375 -0.00125 -0.018309375 0.0
205 1 -0.027759375 -0.00125 -0.017128125 0.0
206 1 -0.027759375 -0.00125 -0.015946875 0.175758893257
207 1 -0.027759375 -0.00125 -0.014765625 0.14929428164
208 1 -0.027759375 -0.00125 -0.013584375 0.0
209 1 -0.027759375 -0.00125 -0.012403125 0.0
210 1 -0.027759375 -0.00125 -0.011221875 0.0
211 1 -0.027759375 -0.00125 -0.010040625 0.0
212 1 -0.027759375 -0.00125 -0.008859375 0.0
213 1 -0.027759375 -0.00125 -0.007678125 0.0
214 1 -0.027759375 -0.00125 -0.006496875 0.0
215 1 -0.027759375 -0.00125 -0.005315625 0.0
216 1 -0.027759375 -0.00125 -0.004134375 0.0
217 1 -0.027759375 -0.00125 -0.002953125 0.0
218 1 -0.027759375 -0.00125 -0.001771875 0.0
219 1 -0.027759375 -0.00125 -0.000590625 0.0
220 1 -0.027759375 -0.00125 0.000590625 0.0
221 1 -0.027759375 -0.00125 0.001771875 0.0
222 1 -0.027759375 -0.00125 0.002953125 0.0
223 1 -0.027759375 -0.00125 0.004134375 0.0
224 1 -0.027759375 -0.00125 0.005315625 1.22156214432e-15
225 1 -0.027759375 -0.00125 0.006496875 2.79378975481e-22
226 1 -0.027759375 -0.00125 0.007678125 0.0
227 1 -0.027759375 -0.00125 0.008859375 0.0
228 1 -0.027759375 -0.00125 0.010040625 0.0
229 1 -0.027759375 -0.00125 0.011221875 0.0
230 1 -0.027759375 -0.00125 0.012403125 0.0
231 1 -0.027759375 -0.00125 0.013584375 0.0
232 1 -0.027759375 -0.00125 0.014765625 0.0
233 1 -0.027759375 -0.00125 0.015946875 0.0
234 1 -0.027759375 -0.00125 0.017128125 0.0
235 1 -0.027759375 -0.00125 0.018309375 0.0
236 1 -0.027759375 -0.00125 0.019490625 0.0
237 1 -0.027759375 -0.00125 0.020671875 6.01557630165e-07
238 1 -0.027759375 -0.00125 0.021853125 1.61610918776e-06
239 1 -0.027759375 -0.00125 0.023034375 0.00106278235535
240 1 -0.027759375 -0.00125 0.024215625 0.0
241 1 -0.026578125 -0.00125 -0.026578125 0.0
242 1 -0.026578125 -0.00125 -0.025396875 0.0
243 1 -0.026578125 -0.00125 -0.024215625 0.0
244 1 -0.026578125 -0.00125 -0.023034375 0.0
245 1 -0.026578125 -0.00125 -0.021853125 0.0
246 1 -0.026578125 -0.00125 -0.020671875 0.0
247 1 -0.026578125 -0.00125 -0.019490625 0.0
248 1 -0.026578125 -0.00125 -0.018309375 0.0
249 1 -0.026578125 -0.00125 -0.017128125 0.0
250 1 -0.026578125 -0.00125 -0.015946875 0.186171540908
251 1 -0.026578125 -0.00125 -0.014765625 0.167516386218
252 1 -0.026578125 -0.00125 -0.013584375 7.49709589486e-44
253 1 -0.026578125 -0.00125 -0.012403125 4.52220221462e-06
254 1 -0.026578125 -0.00125 -0.011221875 4.52220221462e-06
255 1 -0.026578125 -0.00125 -0.010040625 2.79378975481e-22
256 1 -0.026578125 -0.00125 -0.008859375 2.79378975481e-22
257 1 -0.026578125 -0.00125 -0.007678125 0.000741931199387
258 1 -0.026578125 -0.00125 -0.006496875 0.00919691101224
259 1 -0.026578125 -0.00125 -0.005315625 0.0282821645857
260 1 -0.026578125 -0.00125 -0.004134375 0.0199376306027
261 1 -0.026578125 -0.00125 -0.002953125 0.0282821964452
262 1 -0.026578125 -0.00125 -0.001771875 0.0683382082321
263 1 -0.026578125 -0.00125 -0.000590625 0.0869646497893
264 1 -0.026578125 -0.00125 0.000590625 0.0586232972239
265 1 -0.026578125 -0.00125 0.001771875 0.0352839698423
266 1 -0.026578125 -0.00125 0.002953125 0.0352839698423
267 1 -0.026578125 -0.00125 0.004134375 0.0282821645857
268 1 -0.026578125 -0.00125 0.005315625 0.0622854357979
269 1 -0.026578125 -0.00125 0.006496875 0.00987185758727
270 1 -0.026578125 -0.00125 0.007678125 0.00668182974929
271 1 -0.026578125 -0.00125 0.008859375 0.00668182974929
272 1 -0.026578125 -0.00125 0.010040625 0.00198208350256
273 1 -0.026578125 -0.00125 0.011221875 0.000299131636816
274 1 -0.026578125 -0.00125 0.012403125 1.74019667629e-11
275 1 -0.026578125 -0.00125 0.013584375 0.0
276 1 -0.026578125 -0.00125 0.014765625 0.0
277 1 -0.026578125 -0.00125 0.015946875 0.0
278 1 -0.026578125 -0.00125 0.017128125 0.0
279 1 -0.026578125 -0.00125 0.018309375 2.79378975481e-22
280 1 -0.026578125 -0.00125 0.019490625 7.8331402925e-10
281 1 -0.026578125 -0.00125 0.020671875 0.0335973715894
282 1 -0.026578125 -0.00125 0.021853125 0.00228021068349
283 1 -0.026578125 -0.00125 0.023034375 0.0
284 1 -0.026578125 -0.00125 0.024215625 0.0
285 1 -0.026578125 -0.00125 0.025396875 0.0
286 1 -0.026578125 -0.00125 0.026578125 0.0
287 1 -0.025396875 -0.00125 -0.026578125 0.0
288 1 -0.025396875 -0.00125 -0.025396875 0.0
289 1 -0.025396875 -0.00125 -0.024215625 0.000126658700522
290 1 -0.025396875 -0.00125 -0.023034375 0.000126658700522
291 1 -0.025396875 -0.00125 -0.021853125 0.000126658700522
292 1 -0.025396875 -0.00125 -0.020671875 0.000126658700522
293 1 -0.025396875 -0.00125 -0.019490625 1.40785443464e-30
294 1 -0.025396875 -0.00125 -0.018309375 0.0
295 1 -0.025396875 -0.00125 -0.017128125 0.0
296 1 -0.025396875 -0.00125 -0.015946875 0.091233852548
297 1 -0.025396875 -0.00125 -0.014765625 0.430635345024
298 1 -0.025396875 -0.00125 -0.013584375 1.28754471296e-08
299 1 -0.025396875 -0.00125 -0.012403125 0.0
300 1 -0.025396875 -0.00125 -0.011221875 0.0
301 1 -0.025396875 -0.00125 -0.010040625 0.0
302 1 -0.025396875 -0.00125 -0.008859375 0.0
303 1 -0.025396875 -0.00125 -0.007678125 0.0
304 1 -0.025396875 -0.00125 -0.006496875 2.79378975481e-22
305 1 -0.025396875 -0.00125 -0.005315625 0.00154812961495
306 1 -0.025396875 -0.00125 -0.004134375 0.00154812961495
307 1 -0.025396875 -0.00125 -0.002953125 0.00154812961495
308 1 -0.025396875 -0.00125 -0.001771875 0.057902305032
309 1 -0.025396875 -0.00125 -0.000590625 0.00154812961495
310 1 -0.025396875 -0.00125 0.000590625 0.00349873817525
311 1 -0.025396875 -0.00125 0.001771875 0.00154812961495
312 1 -0.025396875 -0.00125 0.002953125 0.00154812961495
313 1 -0.025396875 -0.00125 0.004134375 0.00154812961495
314 1 -0.025396875 -0.00125 0.005315625 0.000299131636816
315 1 -0.025396875 -0.00125 0.006496875 0.0
316 1 -0.025396875 -0.00125 0.007678125 0.0
317 1 -0.025396875 -0.00125 0.008859375 0.0
318 1 -0.025396875 -0.00125 0.010040625 0.0
319 1 -0.025396875 -0.00125 0.011221875 0.0
320 1 -0.025396875 -0.00125 0.012403125 0.0
321 1 -0.025396875 -0.00125 0.013584375 0.0
322 1 -0.025396875 -0.00125 0.014765625 0.0
323 1 -0.025396875 -0.00125 0.015946875 0.0
324 1 -0.025396875 -0.00125 0.017128125 1.74019667629e-11
325 1 -0.025396875 -0.00125 0.018309375 1.74019667629e-11
326 1 -0.025396875 -0.00125 0.019490625 0.00566000619181
327 1 -0.025396875 -0.00125 0.020671875 0.459723333625
328 1 -0.025396875 -0.00125 0.021853125 0.0698876476892
329 1 -0.025396875 -0.00125 0.023034375 0.00154813293271
330 1 -0.025396875 -0.00125 0.024215625 0.000126658700522
331 1 -0.025396875 -0.00125 0.025396875 0.000126658700522
332 1 -0.025396875 -0.00125 0.026578125 2.24994213629e-12
333 1 -0.024215625 -0.00125 -0.027759375 0.0
334 1 -0.024215625 -0.00125 -0.026578125 3.14925560351e-13
335 1 -0.024215625 -0.00125 -0.025396875 0.0138696939255
336 1 -0.024215625 -0.00125 -0.024215625 0.0138696939255
337 1 -0.024215625 -0.00125 -0.023034375 0.0138696939255
338 1 -0.024215625 -0.00125 -0.021853125 0.0999860491522
339 1 -0.024215625 -0.00125 -0.020671875 0.0381872278205
340 1 -0.024215625 -0.00125 -0.019490625 1.28754471296e-08
341 1 -0.024215625 -0.00125 -0.018309375 0.0
342 1 -0.024215625 -0.00125 -0.017128125 0.0
343 1 -0.024215625 -0.00125 -0.015946875 0.000891023127979
344 1 -0.024215625 -0.00125 -0.014765625 0.419449528188
345 1 -0.024215625 -0.00125 -0.013584375 0.01386971523
346 1 -0.024215625 -0.00125 -0.012403125 0.0
347 1 -0.024215625 -0.00125 -0.011221875 0.0
348 1 -0.024215625 -0.00125 -0.010040625 0.0
349 1 -0.024215625 -0.00125 -0.008859375 0.0
350 1 -0.024215625 -0.00125 -0.007678125 0.0
351 1 -0.024215625 -0.00125 -0.006496875 0.0
352 1 -0.024215625 -0.00125 -0.005315625 0.000299132858986
353 1 -0.024215625 -0.00125 -0.004134375 0.00668184101894
354 1 -0.024215625 -0.00125 -0.002953125 0.0138696939255
355 1 -0.024215625 -0.00125 -0.001771875 0.000299132858986
356 1 -0.024215625 -0.00125 -0.000590625 0.000126657572948
357 1 -0.024215625 -0.00125 0.000590625 0.00019868031303
358 1 -0.024215625 -0.00125 0.001771875 1.22156214432e-15
359 1 -0.024215625 -0.00125 0.002953125 0.000891023127979
360 1 -0.024215625 -0.00125 0.004134375 0.0032259559905
361 1 -0.024215625 -0.00125 0.005315625 0.0
362 1 -0.024215625 -0.00125 0.006496875 0.0
363 1 -0.024215625 -0.00125 0.007678125 0.0
364 1 -0.024215625 -0.00125 0.008859375 0.0
365 1 -0.024215625 -0.00125 0.010040625 0.0
366 1 -0.024215625 -0.00125 0.011221875 0.0
367 1 -0.024215625 -0.00125 0.012403125 0.0
368 1 -0.024215625 -0.00125 0.013584375 0.0
369 1 -0.024215625 -0.00125 0.014765625 0.0
370 1 -0.024215625 -0.00125 0.015946875 1.74019667629e-11
371 1 -0.024215625 -0.00125 0.017128125 0.0
372 1 -0.024215625 -0.00125 0.018309375 0.0
373 1 -0.024215625 -0.00125 0.019490625 0.00855155891876
374 1 -0.024215625 -0.00125 0.020671875 0.224469737872
375 1 -0.024215625 -0.00125 0.021853125 0.00154813293271
376 1 -0.024215625 -0.00125 0.023034375 0.0138696939255
377 1 -0.024215625 -0.00125 0.024215625 0.0138696939255
378 1 -0.024215625 -0.00125 0.025396875 0.0138696939255
379 1 -0.024215625 -0.00125 0.026578125 0.010158510715
380 1 -0.024215625 -0.00125 0.027759375 0.0
381 1 -0.023034375 -0.00125 -0.027759375 1.63558782507e-05
382 1 -0.023034375 -0.00125 -0.026578125 1.5838087899e-05
383 1 -0.023034375 -0.00125 -0.025396875 0.000126658700522
384 1 -0.023034375 -0.00125 -0.024215625 0.000126658700522
385 1 -0.023034375 -0.00125 -0.023034375 0.00154813293271
386 1 -0.023034375 -0.00125 -0.021853125 0.0138696939255
387 1 -0.023034375 -0.00125 -0.020671875 0.123928325831
388 1 -0.023034375 -0.00125 -0.019490625 0.0187026438913
389 1 -0.023034375 -0.00125 -0.018309375 0.0
390 1 -0.023034375 -0.00125 -0.017128125 0.0
391 1 -0.023034375 -0.00125 -0.015946875 4.42606186288e-05
392 1 -0.023034375 -0.00125 -0.014765625 0.281290216208
393 1 -0.023034375 -0.00125 -0.013584375 0.191419372554
394 1 -0.023034375 -0.00125 -0.012403125 1.74019667629e-11
395 1 -0.023034375 -0.00125 -0.011221875 1.74019667629e-11
396 1 -0.023034375 -0.00125 -0.010040625 0.0
397 1 -0.023034375 -0.00125 -0.008859375 0.0
398 1 -0.023034375 -0.00125 -0.007678125 1.74019667629e-11
399 1 -0.023034375 -0.00125 -0.006496875 0.000198679422043
400 1 -0.023034375 -0.00125 -0.005315625 0.00474644221021
401 1 -0.023034375 -0.00125 -0.004134375 0.0138696939255
402 1 -0.023034375 -0.00125 -0.002953125 0.0175126135393
403 1 -0.023034375 -0.00125 -0.001771875 0.0293069007767
404 1 -0.023034375 -0.00125 -0.000590625 0.0138696939255
405 1 -0.023034375 -0.00125 0.000590625 0.00987185758727
406 1 -0.023034375 -0.00125 0.001771875 0.0243767756543
407 1 -0.023034375 -0.00125 0.002953125 0.0550579642476
408 1 -0.023034375 -0.00125 0.004134375 0.0550579642476
409 1 -0.023034375 -0.00125 0.005315625 0.010721438861
410 1 -0.023034375 -0.00125 0.006496875 1.5838087899e-05
411 1 -0.023034375 -0.00125 0.007678125 1.22156214432e-15
412 1 -0.023034375 -0.00125 0.008859375 0.0
413 1 -0.023034375 -0.00125 0.010040625 0.0
414 1 -0.023034375 -0.00125 0.011221875 0.0
415 1 -0.023034375 -0.00125 0.012403125 0.0
416 1 -0.023034375 -0.00125 0.013584375 0.0
417 1 -0.023034375 -0.00125 0.014765625 4.52220221462e-06
418 1 -0.023034375 -0.00125 0.015946875 4.52220221462e-06
419 1 -0.023034375 -0.00125 0.017128125 0.0
420 1 -0.023034375 -0.00125 0.018309375 1.74019667629e-11
421 1 -0.023034375 -0.00125 0.019490625 0.00855155891876
422 1 -0.023034375 -0.00125 0.020671875 0.21372123369
423 1 -0.023034375 -0.00125 0.021853125 0.00474645121499
424 1 -0.023034375 -0.00125 0.023034375 0.0698876476892
425 1 -0.023034375 -0.00125 0.024215625 0.0293069007767
426 1 -0.023034375 -0.00125 0.025396875 0.0138696939255
427 1 -0.023034375 -0.00125 0.026578125 0.0156289295152
428 1 -0.023034375 -0.00125 0.027759375 0.0505240441822
429 1 -0.021853125 -0.00125 -0.028940625 0.000167490860231
430 1 -0.021853125 -0.00125 -0.027759375 0.0
431 1 -0.021853125 -0.00125 -0.026578125 0.0
432 1 -0.021853125 -0.00125 -0.025396875 0.0
433 1 -0.021853125 -0.00125 -0.024215625 1.74019667629e-11
434 1 -0.021853125 -0.00125 -0.023034375 0.00154813293271
435 1 -0.021853125 -0.00125 -0.021853125 0.00154813293271
436 1 -0.021853125 -0.00125 -0.020671875 0.00154813293271
437 1 -0.021853125 -0.00125 -0.019490625 0.186171540908
438 1 -0.021853125 -0.00125 -0.018309375 0.000126658700522
439 1 -0.021853125 -0.00125 -0.017128125 0.0
440 1 -0.021853125 -0.00125 -0.015946875 1.18574745776e-05
441 1 -0.021853125 -0.00125 -0.014765625 0.430635859907
442 1 -0.021853125 -0.00125 -0.013584375 0.332326836347
443 1 -0.021853125 -0.00125 -0.012403125 0.00906545268845
444 1 -0.021853125 -0.00125 -0.011221875 0.0
445 1 -0.021853125 -0.00125 -0.010040625 0.0
446 1 -0.021853125 -0.00125 -0.008859375 0.0
447 1 -0.021853125 -0.00125 -0.007678125 1.74019667629e-11
448 1 -0.021853125 -0.00125 -0.006496875 0.00565998798415
449 1 -0.021853125 -0.00125 -0.005315625 0.00668184101894
450 1 -0.021853125 -0.00125 -0.004134375 0.000126658700522
451 1 -0.021853125 -0.00125 -0.002953125 4.52227625942e-06
452 1 -0.021853125 -0.00125 -0.001771875 0.00154813293271
453 1 -0.021853125 -0.00125 -0.000590625 0.00249557400626
454 1 -0.021853125 -0.00125 0.000590625 0.00565999405337
455 1 -0.021853125 -0.00125 0.001771875 0.0293069007767
456 1 -0.021853125 -0.00125 0.002953125 0.0443323240644
457 1 -0.021853125 -0.00125 0.004134375 0.0293069224194
458 1 -0.021853125 -0.00125 0.005315625 0.0443323240644
459 1 -0.021853125 -0.00125 0.006496875 0.0462612962825
460 1 -0.021853125 -0.00125 0.007678125 0.0381872649833
461 1 -0.021853125 -0.00125 0.008859375 6.01557630165e-07
462 1 -0.021853125 -0.00125 0.010040625 0.0
463 1 -0.021853125 -0.00125 0.011221875 0.0
464 1 -0.021853125 -0.00125 0.012403125 0.0
465 1 -0.021853125 -0.00125 0.013584375 0.0
466 1 -0.021853125 -0.00125 0.014765625 4.52220221462e-06
467 1 -0.021853125 -0.00125 0.015946875 4.52220221462e-06
468 1 -0.021853125 -0.00125 0.017128125 4.52220221462e-06
469 1 -0.021853125 -0.00125 0.018309375 4.52220221462e-06
470 1 -0.021853125 -0.00125 0.019490625 0.0187026692579
471 1 -0.021853125 -0.00125 0.020671875 0.252716464147
472 1 -0.021853125 -0.00125 0.021853125 0.0443322841124
473 1 -0.021853125 -0.00125 0.023034375 0.0443322841124
474 1 -0.021853125 -0.00125 0.024215625 0.0138696939255
475 1 -0.021853125 -0.00125 0.025396875 0.0138696939255
476 1 -0.021853125 -0.00125 0.026578125 0.00284458672872
477 1 -0.021853125 -0.00125 0.027759375 1.18574745776e-05
478 1 -0.021853125 -0.00125 0.028940625 0.0
479 1 -0.020671875 -0.00125 -0.030121875 0.0
480 1 -0.020671875 -0.00125 -0.028940625 0.0
481 1 -0.020671875 -0.00125 -0.027759375 0.0
482 1 -0.020671875 -0.00125 -0.026578125 0.0
483 1 -0.020671875 -0.00125 -0.025396875 0.0
484 1 -0.020671875 -0.00125 -0.024215625 1.74019667629e-11
485 1 -0.020671875 -0.00125 -0.023034375 0.00154813293271
486 1 -0.020671875 -0.00125 -0.021853125 0.00154813293271
487 1 -0.020671875 -0.00125 -0.020671875 0.0138696939255
488 1 -0.020671875 -0.00125 -0.019490625 0.224469963493
489 1 -0.020671875 -0.00125 -0.018309375 0.0999860491522
490 1 -0.020671875 -0.00125 -0.017128125 1.74019667629e-11
491 1 -0.020671875 -0.00125 -0.015946875 0.00668184101894
492 1 -0.020671875 -0.00125 -0.014765625 0.437347741442
493 1 -0.020671875 -0.00125 -0.013584375 0.332327115976
494 1 -0.020671875 -0.00125 -0.012403125 0.00249557865471
495 1 -0.020671875 -0.00125 -0.011221875 1.74019667629e-11
496 1 -0.020671875 -0.00125 -0.010040625 0.0
497 1 -0.020671875 -0.00125 -0.008859375 0.0
498 1 -0.020671875 -0.00125 -0.007678125 0.0
499 1 -0.020671875 -0.00125 -0.006496875 1.77731074088e-06
500 1 -0.020671875 -0.00125 -0.005315625 0.0138696939255
501 1 -0.020671875 -0.00125 -0.004134375 0.0999860863438
502 1 -0.020671875 -0.00125 -0.002953125 0.0622852805866
503 1 -0.020671875 -0.00125 -0.001771875 0.0622852805866
504 1 -0.020671875 -0.00125 -0.000590625 0.0622852805866
505 1 -0.020671875 -0.00125 0.000590625 0.123928564454
506 1 -0.020671875 -0.00125 0.001771875 0.0509111013046
507 1 -0.020671875 -0.00125 0.002953125 0.0778403011007
508 1 -0.020671875 -0.00125 0.004134375 0.0999860491522
509 1 -0.020671875 -0.00125 0.005315625 0.123928325831
510 1 -0.020671875 -0.00125 0.006496875 0.0529662928778
511 1 -0.020671875 -0.00125 0.007678125 0.123928365601
512 1 -0.020671875 -0.00125 0.008859375 0.0381872649833
513 1 -0.020671875 -0.00125 0.010040625 6.01557630165e-07
514 1 -0.020671875 -0.00125 0.011221875 1.74019667629e-11
515 1 -0.020671875 -0.00125 0.012403125 0.0
516 1 -0.020671875 -0.00125 0.013584375 2.79378975481e-22
517 1 -0.020671875 -0.00125 0.014765625 1.74019667629e-11
518 1 -0.020671875 -0.00125 0.015946875 1.74019667629e-11
519 1 -0.020671875 -0.00125 0.017128125 4.52220221462e-06
520 1 -0.020671875 -0.00125 0.018309375 0.000126657572948
521 1 -0.020671875 -0.00125 0.019490625 0.091233852548
522 1 -0.020671875 -0.00125 0.020671875 0.133535038668
523 1 -0.020671875 -0.00125 0.021853125 0.0138696939255
524 1 -0.020671875 -0.00125 0.023034375 0.0293069007767
525 1 -0.020671875 -0.00125 0.024215625 0.0138696939255
526 1 -0.020671875 -0.00125 0.025396875 0.0138696939255
527 1 -0.020671875 -0.00125 0.026578125 0.000126658199377
528 1 -0.020671875 -0.00125 0.027759375 1.74019667629e-11
529 1 -0.020671875 -0.00125 0.028940625 0.0
530 1 -0.020671875 -0.00125 0.030121875 0.0
531 1 -0.019490625 -0.00125 -0.031303125 0.0
532 1 -0.019490625 -0.00125 -0.030121875 0.0
533 1 -0.019490625 -0.00125 -0.028940625 0.0
534 1 -0.019490625 -0.00125 -0.027759375 0.0
535 1 -0.019490625 -0.00125 -0.026578125 2.71829692303e-12
536 1 -0.019490625 -0.00125 -0.025396875 0.0
537 1 -0.019490625 -0.00125 -0.024215625 2.79378975481e-22
538 1 -0.019490625 -0.00125 -0.023034375 0.00037578590857
539 1 -0.019490625 -0.00125 -0.021853125 0.00228021395688
540 1 -0.019490625 -0.00125 -0.020671875 0.0085515641959
541 1 -0.019490625 -0.00125 -0.019490625 0.117795757099
542 1 -0.019490625 -0.00125 -0.018309375 0.375844969653
543 1 -0.019490625 -0.00125 -0.017128125 0.0698876151292
544 1 -0.019490625 -0.00125 -0.015946875 0.227707986464
545 1 -0.019490625 -0.00125 -0.014765625 0.693248785494
546 1 -0.019490625 -0.00125 -0.013584375 0.118434584514
547 1 -0.019490625 -0.00125 -0.012403125 0.000211140380572
548 1 -0.019490625 -0.00125 -0.011221875 0.00393677008797
549 1 -0.019490625 -0.00125 -0.010040625 0.116393612657
550 1 -0.019490625 -0.00125 -0.008859375 0.172658474079
551 1 -0.019490625 -0.00125 -0.007678125 0.172658474079
552 1 -0.019490625 -0.00125 -0.006496875 0.172658474079
553 1 -0.019490625 -0.00125 -0.005315625 0.172658474079
554 1 -0.019490625 -0.00125 -0.004134375 0.258189948267
555 1 -0.019490625 -0.00125 -0.002953125 0.286812771634
556 1 -0.019490625 -0.00125 -0.001771875 0.28129044713
557 1 -0.019490625 -0.00125 -0.000590625 0.252716464147
558 1 -0.019490625 -0.00125 0.000590625 0.22069933739
559 1 -0.019490625 -0.00125 0.001771875 0.191419108408
560 1 -0.019490625 -0.00125 0.002953125 0.306751493137
561 1 -0.019490625 -0.00125 0.004134375 0.286812771634
562 1 -0.019490625 -0.00125 0.005315625 0.315636728068
563 1 -0.019490625 -0.00125 0.006496875 0.147798208843
564 1 -0.019490625 -0.00125 0.007678125 0.0187026777134
565 1 -0.019490625 -0.00125 0.008859375 0.0122342600864
566 1 -0.019490625 -0.00125 0.010040625 0.141358161149
567 1 -0.019490625 -0.00125 0.011221875 0.00855157475018
568 1 -0.019490625 -0.00125 0.012403125 2.79378975481e-22
569 1 -0.019490625 -0.00125 0.013584375 0.00019867960024
570 1 -0.019490625 -0.00125 0.014765625 0.0078158791773
571 1 -0.019490625 -0.00125 0.015946875 0.0128736434339
572 1 -0.019490625 -0.00125 0.017128125 0.114532075754
573 1 -0.019490625 -0.00125 0.018309375 0.277980481053
574 1 -0.019490625 -0.00125 0.019490625 0.362999590456
575 1 -0.019490625 -0.00125 0.020671875 0.131597898254
576 1 -0.019490625 -0.00125 0.021853125 0.00474645121499
577 1 -0.019490625 -0.00125 0.023034375 0.0138696939255
578 1 -0.019490625 -0.00125 0.024215625 0.00284458672872