ITEM: TIMESTEP
0
ITEM: NUMBER OF ATOMS
3080
ITEM: BOX BOUNDS ss ss ss
-3.7007399999999996e-02 3.7007399999999996e-02
-2.0002499999999999e-03 2.5000000000000004e-07
-3.7007399999999996e-02 3.7007399999999996e-02
ITEM: ATOMS id type x y z c_1
0 1 -0.037209375 -0.00125 -0.000590625 0.656974306544
1 1 -0.036028125 -0.00125 -0.007678125 0.00920066229086
2 1 -0.036028125 -0.00125 -0.006496875 0.0
3 1 -0.036028125 -0.00125 -0.005315625 0.0
4 1 -0.036028125 -0.00125 -0.004134375 0.0
5 1 -0.036028125 -0.00125 -0.002953125 4.42606186288e-05
6 1 -0.036028125 -0.00125 -0.001771875 0.17162733092
7 1 -0.036028125 -0.00125 -0.000590625 0.425202789271
8 1 -0.036028125 -0.00125 0.000590625 0.258043549178
9 1 -0.036028125 -0.00125 0.001771875 0.226627730138
10 1 -0.036028125 -0.00125 0.002953125 4.42606186288e-05
11 1 -0.036028125 -0.00125 0.004134375 0.0272764861063
12 1 -0.036028125 -0.00125 0.005315625 0.0272764861063
13 1 -0.036028125 -0.00125 0.006496875 0.0
14 1 -0.036028125 -0.00125 0.007678125 0.000455413315469
15 1 -0.034846875 -0.00125 -0.011221875 0.00920066229086
16 1 -0.034846875 -0.00125 -0.010040625 0.0593479449997
17 1 -0.034846875 -0.00125 -0.008859375 0.103819694314
18 1 -0.034846875 -0.00125 -0.007678125 0.0
19 1 -0.034846875 -0.00125 -0.006496875 0.0
20 1 -0.034846875 -0.00125 -0.005315625 0.0
21 1 -0.034846875 -0.00125 -0.004134375 0.000126658700522
22 1 -0.034846875 -0.00125 -0.002953125 0.0443322841124
23 1 -0.034846875 -0.00125 -0.001771875 0.139391385346
24 1 -0.034846875 -0.00125 -0.000590625 0.40155560828
25 1 -0.034846875 -0.00125 0.000590625 0.312303395346
26 1 -0.034846875 -0.00125 0.001771875 0.114532075754
27 1 -0.034846875 -0.00125 0.002953125 0.0999860491522
28 1 -0.034846875 -0.00125 0.004134375 0.00154813293271
29 1 -0.034846875 -0.00125 0.005315625 1.74019667629e-11
30 1 -0.034846875 -0.00125 0.006496875 0.0
31 1 -0.034846875 -0.00125 0.007678125 0.0
32 1 -0.034846875 -0.00125 0.008859375 0.268886816989
33 1 -0.034846875 -0.00125 0.010040625 0.226627684957
34 1 -0.034846875 -0.00125 0.011221875 0.00920066229086
35 1 -0.033665625 -0.00125 -0.013584375 0.0
36 1 -0.033665625 -0.00125 -0.012403125 0.0648941552085
37 1 -0.033665625 -0.00125 -0.011221875 0.0268391201877
38 1 -0.033665625 -0.00125 -0.010040625 0.186171540908
39 1 -0.033665625 -0.00125 -0.008859375 0.186171540908
40 1 -0.033665625 -0.00125 -0.007678125 0.0
41 1 -0.033665625 -0.00125 -0.006496875 0.0
42 1 -0.033665625 -0.00125 -0.005315625 0.0
43 1 -0.033665625 -0.00125 -0.004134375 0.000126657572948
44 1 -0.033665625 -0.00125 -0.002953125 0.0293069007767
45 1 -0.033665625 -0.00125 -0.001771875 0.091233852548
46 1 -0.033665625 -0.00125 -0.000590625 0.415422951466
47 1 -0.033665625 -0.00125 0.000590625 0.441263535001
48 1 -0.033665625 -0.00125 0.001771875 0.0778403011007
49 1 -0.033665625 -0.00125 0.002953125 0.114532075754
50 1 -0.033665625 -0.00125 0.004134375 0.0443322841124
51 1 -0.033665625 -0.00125 0.005315625 6.01557630165e-07
52 1 -0.033665625 -0.00125 0.006496875 0.0
53 1 -0.033665625 -0.00125 0.007678125 0.0
54 1 -0.033665625 -0.00125 0.008859375 0.186171540908
55 1 -0.033665625 -0.00125 0.010040625 0.292342717184
56 1 -0.033665625 -0.00125 0.011221875 1.18574745776e-05
57 1 -0.033665625 -0.00125 0.012403125 0.0648941709999
58 1 -0.033665625 -0.00125 0.013584375 0.00479085981392
59 1 -0.032484375 -0.00125 -0.018309375 0.0863124897165
60 1 -0.032484375 -0.00125 -0.017128125 0.0753047253833
61 1 -0.032484375 -0.00125 -0.015946875 0.0823629674862
62 1 -0.032484375 -0.00125 -0.014765625 0.0540175686646
63 1 -0.032484375 -0.00125 -0.013584375 1.74016836783e-11
64 1 -0.032484375 -0.00125 -0.012403125 1.28754471296e-08
65 1 -0.032484375 -0.00125 -0.011221875 0.000126658199377
66 1 -0.032484375 -0.00125 -0.010040625 0.224469467126
67 1 -0.032484375 -0.00125 -0.008859375 0.141358367253
68 1 -0.032484375 -0.00125 -0.007678125 1.77731074088e-06
69 1 -0.032484375 -0.00125 -0.006496875 1.74015264108e-11
70 1 -0.032484375 -0.00125 -0.005315625 5.56342681978e-05
71 1 -0.032484375 -0.00125 -0.004134375 1.74019667629e-11
72 1 -0.032484375 -0.00125 -0.002953125 1.28754471296e-08
73 1 -0.032484375 -0.00125 -0.001771875 0.000891030348712
74 1 -0.032484375 -0.00125 -0.000590625 0.151841492688
75 1 -0.032484375 -0.00125 0.000590625 0.389735895408
76 1 -0.032484375 -0.00125 0.001771875 0.0243767364379
77 1 -0.032484375 -0.00125 0.002953125 0.00019868031303
78 1 -0.032484375 -0.00125 0.004134375 0.00228022595935
79 1 -0.032484375 -0.00125 0.005315625 0.000375787654541
80 1 -0.032484375 -0.00125 0.006496875 4.37036150708e-15
81 1 -0.032484375 -0.00125 0.007678125 0.00154813293271
82 1 -0.032484375 -0.00125 0.008859375 0.119202627116
83 1 -0.032484375 -0.00125 0.010040625 0.40155560828
84 1 -0.032484375 -0.00125 0.011221875 0.186171540908
85 1 -0.032484375 -0.00125 0.012403125 0.263674773127
86 1 -0.032484375 -0.00125 0.013584375 0.0803999767471
87 1 -0.032484375 -0.00125 0.014765625 0.00114255200644
88 1 -0.032484375 -0.00125 0.015946875 0.000342403600081
89 1 -0.032484375 -0.00125 0.017128125 0.00106278235535
90 1 -0.032484375 -0.00125 0.018309375 0.0
91 1 -0.031303125 -0.00125 -0.019490625 8.50218305249e-07
92 1 -0.031303125 -0.00125 -0.018309375 0.00713505279549
93 1 -0.031303125 -0.00125 -0.017128125 1.74019667629e-11
94 1 -0.031303125 -0.00125 -0.015946875 0.0138696939255
95 1 -0.031303125 -0.00125 -0.014765625 0.186171540908
96 1 -0.031303125 -0.00125 -0.013584375 0.0167442306548
97 1 -0.031303125 -0.00125 -0.012403125 1.74019667629e-11
98 1 -0.031303125 -0.00125 -0.011221875 1.74019667629e-11
99 1 -0.031303125 -0.00125 -0.010040625 6.01557630165e-07
100 1 -0.031303125 -0.00125 -0.008859375 6.01557630165e-07
101 1 -0.031303125 -0.00125 -0.007678125 1.74019667629e-11
102 1 -0.031303125 -0.00125 -0.006496875 0.000126656946521
103 1 -0.031303125 -0.00125 -0.005315625 0.0698876476892
104 1 -0.031303125 -0.00125 -0.004134375 0.0
105 1 -0.031303125 -0.00125 -0.002953125 0.0
106 1 -0.031303125 -0.00125 -0.001771875 0.000126657572948
107 1 -0.031303125 -0.00125 -0.000590625 0.186171321888
108 1 -0.031303125 -0.00125 0.000590625 0.0999860491522
109 1 -0.031303125 -0.00125 0.001771875 0.0
110 1 -0.031303125 -0.00125 0.002953125 0.0
111 1 -0.031303125 -0.00125 0.004134375 1.74019667629e-11
112 1 -0.031303125 -0.00125 0.005315625 0.0
113 1 -0.031303125 -0.00125 0.006496875 2.79378975481e-22
114 1 -0.031303125 -0.00125 0.007678125 1.74019667629e-11
115 1 -0.031303125 -0.00125 0.008859375 0.000126657572948
116 1 -0.031303125 -0.00125 0.010040625 1.74019667629e-11
117 1 -0.031303125 -0.00125 0.011221875 1.74019667629e-11
118 1 -0.031303125 -0.00125 0.012403125 0.21372123369
119 1 -0.031303125 -0.00125 0.013584375 0.0267810609157
120 1 -0.031303125 -0.00125 0.014765625 0.0
121 1 -0.031303125 -0.00125 0.015946875 0.0
122 1 -0.031303125 -0.00125 0.017128125 0.0
123 1 -0.031303125 -0.00125 0.018309375 0.0
124 1 -0.031303125 -0.00125 0.019490625 0.0
125 1 -0.030121875 -0.00125 -0.020671875 0.0
126 1 -0.030121875 -0.00125 -0.019490625 0.0
127 1 -0.030121875 -0.00125 -0.018309375 0.0
128 1 -0.030121875 -0.00125 -0.017128125 0.0
129 1 -0.030121875 -0.00125 -0.015946875 6.01557630165e-07
130 1 -0.030121875 -0.00125 -0.014765625 0.186171540908
131 1 -0.030121875 -0.00125 -0.013584375 0.0886636546044
132 1 -0.030121875 -0.00125 -0.012403125 0.0
133 1 -0.030121875 -0.00125 -0.011221875 0.0
134 1 -0.030121875 -0.00125 -0.010040625 0.0
135 1 -0.030121875 -0.00125 -0.008859375 0.0
136 1 -0.030121875 -0.00125 -0.007678125 4.52220221462e-06
137 1 -0.030121875 -0.00125 -0.006496875 0.0122342403292
138 1 -0.030121875 -0.00125 -0.005315625 0.0381872649833
139 1 -0.030121875 -0.00125 -0.004134375 0.0
140 1 -0.030121875 -0.00125 -0.002953125 0.0
141 1 -0.030121875 -0.00125 -0.001771875 0.000126657572948
142 1 -0.030121875 -0.00125 -0.000590625 0.107179852095
143 1 -0.030121875 -0.00125 0.000590625 0.01386971523
144 1 -0.030121875 -0.00125 0.001771875 0.0
145 1 -0.030121875 -0.00125 0.002953125 0.0
146 1 -0.030121875 -0.00125 0.004134375 0.0
147 1 -0.030121875 -0.00125 0.005315625 0.0
148 1 -0.030121875 -0.00125 0.006496875 1.28754471296e-08
149 1 -0.030121875 -0.00125 0.007678125 1.22156214432e-15
150 1 -0.030121875 -0.00125 0.008859375 1.74019667629e-11
151 1 -0.030121875 -0.00125 0.010040625 0.000126658700522
152 1 -0.030121875 -0.00125 0.011221875 0.000126658700522
153 1 -0.030121875 -0.00125 0.012403125 0.361324541927
154 1 -0.030121875 -0.00125 0.013584375 0.0293069007767
155 1 -0.030121875 -0.00125 0.014765625 4.52220221462e-06
156 1 -0.030121875 -0.00125 0.015946875 1.74019667629e-11
157 1 -0.030121875 -0.00125 0.017128125 0.0
158 1 -0.030121875 -0.00125 0.018309375 1.74019667629e-11
159 1 -0.030121875 -0.00125 0.019490625 0.0
160 1 -0.030121875 -0.00125 0.020671875 2.52587523623e-07
161 1 -0.028940625 -0.00125 -0.021853125 0.0
162 1 -0.028940625 -0.00125 -0.020671875 0.0
163 1 -0.028940625 -0.00125 -0.019490625 0.0
164 1 -0.028940625 -0.00125 -0.018309375 0.0
165 1 -0.028940625 -0.00125 -0.017128125 0.000126658700522
166 1 -0.028940625 -0.00125 -0.015946875 0.000126657572948
167 1 -0.028940625 -0.00125 -0.014765625 0.263674497482
168 1 -0.028940625 -0.00125 -0.013584375 0.0475687660223
169 1 -0.028940625 -0.00125 -0.012403125 0.0
170 1 -0.028940625 -0.00125 -0.011221875 1.74019667629e-11
171 1 -0.028940625 -0.00125 -0.010040625 1.74019667629e-11
172 1 -0.028940625 -0.00125 -0.008859375 1.74019667629e-11
173 1 -0.028940625 -0.00125 -0.007678125 0.00154812961495
174 1 -0.028940625 -0.00125 -0.006496875 0.0660410552853
175 1 -0.028940625 -0.00125 -0.005315625 0.203052015623
176 1 -0.028940625 -0.00125 -0.004134375 0.0199375166154
177 1 -0.028940625 -0.00125 -0.002953125 0.000126658700522
178 1 -0.028940625 -0.00125 -0.001771875 1.74019667629e-11
179 1 -0.028940625 -0.00125 -0.000590625 0.00228020850123
180 1 -0.028940625 -0.00125 0.000590625 0.000891023127979
181 1 -0.028940625 -0.00125 0.001771875 1.74019667629e-11
182 1 -0.028940625 -0.00125 0.002953125 0.0
183 1 -0.028940625 -0.00125 0.004134375 0.0
184 1 -0.028940625 -0.00125 0.005315625 0.0
185 1 -0.028940625 -0.00125 0.006496875 1.60797611259e-09
186 1 -0.028940625 -0.00125 0.007678125 0.000126658700522
187 1 -0.028940625 -0.00125 0.008859375 1.74019667629e-11
188 1 -0.028940625 -0.00125 0.010040625 0.00154813293271
189 1 -0.028940625 -0.00125 0.011221875 0.159358746116
190 1 -0.028940625 -0.00125 0.012403125 0.649836732464
191 1 -0.028940625 -0.00125 0.013584375 0.0113119039806
192 1 -0.028940625 -0.00125 0.014765625 4.52220221462e-06
193 1 -0.028940625 -0.00125 0.015946875 1.74019667629e-11
194 1 -0.028940625 -0.00125 0.017128125 0.0
195 1 -0.028940625 -0.00125 0.018309375 1.74019667629e-11
196 1 -0.028940625 -0.00125 0.019490625 2.79378975481e-22
197 1 -0.028940625 -0.00125 0.020671875 0.0
198 1 -0.028940625 -0.00125 0.021853125 0.0225621152214
199 1 -0.027759375 -0.00125 -0.024215625 0.0
200 1 -0.027759375 -0.00125 -0.023034375 0.0
201 1 -0.027759375 -0.00125 -0.021853125 0.0
202 1 -0.027759375 -0.00125 -0.020671875 0.0
203 1 -0.027759375 -0.00125 -0.019490625 0.0
204 1 -0.027759375 -0.00125 -0.018309375 0.000126658700522
205 1 -0.027759375 -0.00125 -0.017128125 1.74019667629e-11
206 1 -0.027759375 -0.00125 -0.015946875 0.00154812961495
207 1 -0.027759375 -0.00125 -0.014765625 0.224469737872
208 1 -0.027759375 -0.00125 -0.013584375 0.0167442385886
209 1 -0.027759375 -0.00125 -0.012403125 0.0
210 1 -0.027759375 -0.00125 -0.011221875 1.74019667629e-11
211 1 -0.027759375 -0.00125 -0.010040625 1.74019667629e-11
212 1 -0.027759375 -0.00125 -0.008859375 0.0
213 1 -0.027759375 -0.00125 -0.007678125 1.74019667629e-11
214 1 -0.027759375 -0.00125 -0.006496875 0.00393676055555
215 1 -0.027759375 -0.00125 -0.005315625 0.0827704828178
216 1 -0.027759375 -0.00125 -0.004134375 0.263675002831
217 1 -0.027759375 -0.00125 -0.002953125 0.0138696939255
218 1 -0.027759375 -0.00125 -0.001771875 0.0243767756543
219 1 -0.027759375 -0.00125 -0.000590625 0.0827702741511
220 1 -0.027759375 -0.00125 0.000590625 0.14929428164
221 1 -0.027759375 -0.00125 0.001771875 0.0550579642476
222 1 -0.027759375 -0.00125 0.002953125 0.0550579642476
223 1 -0.027759375 -0.00125 0.004134375 0.0199375341518
224 1 -0.027759375 -0.00125 0.005315625 0.000891023127979
225 1 -0.027759375 -0.00125 0.006496875 6.01551003484e-07
226 1 -0.027759375 -0.00125 0.007678125 0.000126657572948
227 1 -0.027759375 -0.00125 0.008859375 1.74019667629e-11
228 1 -0.027759375 -0.00125 0.010040625 0.0243767756543
229 1 -0.027759375 -0.00125 0.011221875 0.482099221396
230 1 -0.027759375 -0.00125 0.012403125 0.551464182117
231 1 -0.027759375 -0.00125 0.013584375 0.00154812961495
232 1 -0.027759375 -0.00125 0.014765625 0.0
233 1 -0.027759375 -0.00125 0.015946875 6.01557630165e-07
234 1 -0.027759375 -0.00125 0.017128125 6.01557630165e-07
235 1 -0.027759375 -0.00125 0.018309375 1.74019667629e-11
236 1 -0.027759375 -0.00125 0.019490625 2.79378975481e-22
237 1 -0.027759375 -0.00125 0.020671875 0.0
238 1 -0.027759375 -0.00125 0.021853125 0.0
239 1 -0.027759375 -0.00125 0.023034375 0.00106278235535
240 1 -0.027759375 -0.00125 0.024215625 0.0
241 1 -0.026578125 -0.00125 -0.026578125 0.00466864259094
242 1 -0.026578125 -0.00125 -0.025396875 0.00276057001014
243 1 -0.026578125 -0.00125 -0.024215625 0.000492128189834
244 1 -0.026578125 -0.00125 -0.023034375 0.00118682874801
245 1 -0.026578125 -0.00125 -0.021853125 0.00118682874801
246 1 -0.026578125 -0.00125 -0.020671875 0.00284458672872
247 1 -0.026578125 -0.00125 -0.019490625 0.0161809772646
248 1 -0.026578125 -0.00125 -0.018309375 0.000741932169772
249 1 -0.026578125 -0.00125 -0.017128125 1.77729209249e-06
250 1 -0.026578125 -0.00125 -0.015946875 3.07877004318e-05
251 1 -0.026578125 -0.00125 -0.014765625 0.0802910276307
252 1 -0.026578125 -0.00125 -0.013584375 0.204115253784
253 1 -0.026578125 -0.00125 -0.012403125 0.0
254 1 -0.026578125 -0.00125 -0.011221875 0.0
255 1 -0.026578125 -0.00125 -0.010040625 0.0
256 1 -0.026578125 -0.00125 -0.008859375 0.0
257 1 -0.026578125 -0.00125 -0.007678125 0.0
258 1 -0.026578125 -0.00125 -0.006496875 0.0
259 1 -0.026578125 -0.00125 -0.005315625 3.14925560351e-13
260 1 -0.026578125 -0.00125 -0.004134375 0.00625988471486
261 1 -0.026578125 -0.00125 -0.002953125 0.134506394838
262 1 -0.026578125 -0.00125 -0.001771875 0.131597898254
263 1 -0.026578125 -0.00125 -0.000590625 0.141358367253
264 1 -0.026578125 -0.00125 0.000590625 0.141358161149
265 1 -0.026578125 -0.00125 0.001771875 0.107179852095
266 1 -0.026578125 -0.00125 0.002953125 0.0912338705648
267 1 -0.026578125 -0.00125 0.004134375 0.114532095179
268 1 -0.026578125 -0.00125 0.005315625 0.114532075754
269 1 -0.026578125 -0.00125 0.006496875 0.155818805368
270 1 -0.026578125 -0.00125 0.007678125 0.154307310461
271 1 -0.026578125 -0.00125 0.008859375 0.0187026438913
272 1 -0.026578125 -0.00125 0.010040625 0.141358161149
273 1 -0.026578125 -0.00125 0.011221875 0.549226860608
274 1 -0.026578125 -0.00125 0.012403125 0.133535282316
275 1 -0.026578125 -0.00125 0.013584375 1.77729209249e-06
276 1 -0.026578125 -0.00125 0.014765625 0.0
277 1 -0.026578125 -0.00125 0.015946875 0.000126658700522
278 1 -0.026578125 -0.00125 0.017128125 0.000126658700522
279 1 -0.026578125 -0.00125 0.018309375 0.000126658700522
280 1 -0.026578125 -0.00125 0.019490625 2.21250281064e-07
281 1 -0.026578125 -0.00125 0.020671875 3.14925560351e-13
282 1 -0.026578125 -0.00125 0.021853125 1.77731074088e-06
283 1 -0.026578125 -0.00125 0.023034375 0.000126658199377
284 1 -0.026578125 -0.00125 0.024215625 0.000653387284813
285 1 -0.026578125 -0.00125 0.025396875 1.18026294841e-10
286 1 -0.026578125 -0.00125 0.026578125 0.0
287 1 -0.025396875 -0.00125 -0.026578125 0.0
288 1 -0.025396875 -0.00125 -0.025396875 0.0
289 1 -0.025396875 -0.00125 -0.024215625 6.01557630165e-07
290 1 -0.025396875 -0.00125 -0.023034375 0.000891023127979
291 1 -0.025396875 -0.00125 -0.021853125 0.000891023127979
292 1 -0.025396875 -0.00125 -0.020671875 0.000126658700522
293 1 -0.025396875 -0.00125 -0.019490625 0.0267810299687
294 1 -0.025396875 -0.00125 -0.018309375 0.186171540908
295 1 -0.025396875 -0.00125 -0.017128125 0.0293069007767
296 1 -0.025396875 -0.00125 -0.015946875 0.000126658700522
297 1 -0.025396875 -0.00125 -0.014765625 0.0622852805866
298 1 -0.025396875 -0.00125 -0.013584375 0.136454910525
299 1 -0.025396875 -0.00125 -0.012403125 0.0
300 1 -0.025396875 -0.00125 -0.011221875 6.01557630165e-07
301 1 -0.025396875 -0.00125 -0.010040625 4.52220221462e-06
302 1 -0.025396875 -0.00125 -0.008859375 0.0
303 1 -0.025396875 -0.00125 -0.007678125 4.52220221462e-06
304 1 -0.025396875 -0.00125 -0.006496875 1.77729209249e-06
305 1 -0.025396875 -0.00125 -0.005315625 0.0107214510125
306 1 -0.025396875 -0.00125 -0.004134375 0.120143471494
307 1 -0.025396875 -0.00125 -0.002953125 0.139391385346
308 1 -0.025396875 -0.00125 -0.001771875 0.07461867463
309 1 -0.025396875 -0.00125 -0.000590625 0.0938303773861
310 1 -0.025396875 -0.00125 0.000590625 0.165468790974
311 1 -0.025396875 -0.00125 0.001771875 0.105365916973
312 1 -0.025396875 -0.00125 0.002953125 0.114532114604
313 1 -0.025396875 -0.00125 0.004134375 0.149294365213
314 1 -0.025396875 -0.00125 0.005315625 0.114532114604
315 1 -0.025396875 -0.00125 0.006496875 0.0683381920998
316 1 -0.025396875 -0.00125 0.007678125 0.00474645121499
317 1 -0.025396875 -0.00125 0.008859375 0.0443322841124
318 1 -0.025396875 -0.00125 0.010040625 0.31008152194
319 1 -0.025396875 -0.00125 0.011221875 0.529089062167
320 1 -0.025396875 -0.00125 0.012403125 0.0199375166154
321 1 -0.025396875 -0.00125 0.013584375 0.0
322 1 -0.025396875 -0.00125 0.014765625 6.01557630165e-07
323 1 -0.025396875 -0.00125 0.015946875 0.00154813293271
324 1 -0.025396875 -0.00125 0.017128125 0.00154813293271
325 1 -0.025396875 -0.00125 0.018309375 0.000126658700522
326 1 -0.025396875 -0.00125 0.019490625 0.000126658700522
327 1 -0.025396875 -0.00125 0.020671875 0.00474645121499
328 1 -0.025396875 -0.00125 0.021853125 0.00474645121499
329 1 -0.025396875 -0.00125 0.023034375 0.0138696939255
330 1 -0.025396875 -0.00125 0.024215625 0.0698876476892
331 1 -0.025396875 -0.00125 0.025396875 0.0107214510125
332 1 -0.025396875 -0.00125 0.026578125 0.0
333 1 -0.024215625 -0.00125 -0.027759375 0.0
334 1 -0.024215625 -0.00125 -0.026578125 0.0
335 1 -0.024215625 -0.00125 -0.025396875 0.0
336 1 -0.024215625 -0.00125 -0.024215625 0.000891023127979
337 1 -0.024215625 -0.00125 -0.023034375 0.000891023127979
338 1 -0.024215625 -0.00125 -0.021853125 0.00474645121499
339 1 -0.024215625 -0.00125 -0.020671875 0.000126658700522
340 1 -0.024215625 -0.00125 -0.019490625 0.0187026692579
341 1 -0.024215625 -0.00125 -0.018309375 0.169569358233
342 1 -0.024215625 -0.00125 -0.017128125 0.292342717184
343 1 -0.024215625 -0.00125 -0.015946875 0.0622852495443
344 1 -0.024215625 -0.00125 -0.014765625 0.123928325831
345 1 -0.024215625 -0.00125 -0.013584375 0.172658474079
346 1 -0.024215625 -0.00125 -0.012403125 0.00668184101894
347 1 -0.024215625 -0.00125 -0.011221875 0.00249557865471
348 1 -0.024215625 -0.00125 -0.010040625 4.52220221462e-06
349 1 -0.024215625 -0.00125 -0.008859375 1.74019667629e-11
350 1 -0.024215625 -0.00125 -0.007678125 4.52220221462e-06
351 1 -0.024215625 -0.00125 -0.006496875 0.0167441592505
352 1 -0.024215625 -0.00125 -0.005315625 0.259286106027
353 1 -0.024215625 -0.00125 -0.004134375 0.0912339065983
354 1 -0.024215625 -0.00125 -0.002953125 0.0622852495443
355 1 -0.024215625 -0.00125 -0.001771875 0.0622852805866
356 1 -0.024215625 -0.00125 -0.000590625 0.0295662282024
357 1 -0.024215625 -0.00125 0.000590625 0.229221465583
358 1 -0.024215625 -0.00125 0.001771875 0.0443323240644
359 1 -0.024215625 -0.00125 0.002953125 0.010721438861
360 1 -0.024215625 -0.00125 0.004134375 0.186172022752
361 1 -0.024215625 -0.00125 0.005315625 0.0622852805866
362 1 -0.024215625 -0.00125 0.006496875 0.00118683011771
363 1 -0.024215625 -0.00125 0.007678125 0.000126657572948
364 1 -0.024215625 -0.00125 0.008859375 0.01386971523
365 1 -0.024215625 -0.00125 0.010040625 0.321195978177
366 1 -0.024215625 -0.00125 0.011221875 0.241806863156
367 1 -0.024215625 -0.00125 0.012403125 0.00154813293271
368 1 -0.024215625 -0.00125 0.013584375 3.14925560351e-13
369 1 -0.024215625 -0.00125 0.014765625 0.000126658700522
370 1 -0.024215625 -0.00125 0.015946875 0.01386971523
371 1 -0.024215625 -0.00125 0.017128125 0.0138696939255
372 1 -0.024215625 -0.00125 0.018309375 0.000126658700522
373 1 -0.024215625 -0.00125 0.019490625 0.00284458163855
374 1 -0.024215625 -0.00125 0.020671875 0.000126657572948
375 1 -0.024215625 -0.00125 0.021853125 0.00474645121499
376 1 -0.024215625 -0.00125 0.023034375 0.0698876476892
377 1 -0.024215625 -0.00125 0.024215625 0.252716464147
378 1 -0.024215625 -0.00125 0.025396875 0.0698876476892
379 1 -0.024215625 -0.00125 0.026578125 0.0
380 1 -0.024215625 -0.00125 0.027759375 0.0
381 1 -0.023034375 -0.00125 -0.027759375 0.00106278235535
382 1 -0.023034375 -0.00125 -0.026578125 0.0
383 1 -0.023034375 -0.00125 -0.025396875 6.01557630165e-07
384 1 -0.023034375 -0.00125 -0.024215625 0.000126658700522
385 1 -0.023034375 -0.00125 -0.023034375 0.00474645121499
386 1 -0.023034375 -0.00125 -0.021853125 0.000126658700522
387 1 -0.023034375 -0.00125 -0.020671875 0.00474645121499
388 1 -0.023034375 -0.00125 -0.019490625 0.00565998798415
389 1 -0.023034375 -0.00125 -0.018309375 0.0293069007767
390 1 -0.023034375 -0.00125 -0.017128125 0.252716464147
391 1 -0.023034375 -0.00125 -0.015946875 0.343471904739
392 1 -0.023034375 -0.00125 -0.014765625 0.3791971081
393 1 -0.023034375 -0.00125 -0.013584375 0.445179208408
394 1 -0.023034375 -0.00125 -0.012403125 0.224469737872
395 1 -0.023034375 -0.00125 -0.011221875 0.000891017573599
396 1 -0.023034375 -0.00125 -0.010040625 0.00249557400626
397 1 -0.023034375 -0.00125 -0.008859375 1.74019667629e-11
398 1 -0.023034375 -0.00125 -0.007678125 4.42606186288e-05
399 1 -0.023034375 -0.00125 -0.006496875 0.213721726663
400 1 -0.023034375 -0.00125 -0.005315625 0.14929428164
401 1 -0.023034375 -0.00125 -0.004134375 0.0443323240644
402 1 -0.023034375 -0.00125 -0.002953125 0.00668184101894
403 1 -0.023034375 -0.00125 -0.001771875 0.0243767756543
404 1 -0.023034375 -0.00125 -0.000590625 0.00154812961495
405 1 -0.023034375 -0.00125 0.000590625 0.0335974296664
406 1 -0.023034375 -0.00125 0.001771875 0.000126657572948
407 1 -0.023034375 -0.00125 0.002953125 1.74019667629e-11
408 1 -0.023034375 -0.00125 0.004134375 0.00474645121499
409 1 -0.023034375 -0.00125 0.005315625 0.00668182974929
410 1 -0.023034375 -0.00125 0.006496875 5.5634138017e-05
411 1 -0.023034375 -0.00125 0.007678125 0.00906546363727
412 1 -0.023034375 -0.00125 0.008859375 0.0509111013046
413 1 -0.023034375 -0.00125 0.010040625 0.303422785529
414 1 -0.023034375 -0.00125 0.011221875 0.224469737872
415 1 -0.023034375 -0.00125 0.012403125 0.00668184101894
416 1 -0.023034375 -0.00125 0.013584375 0.000535662176186
417 1 -0.023034375 -0.00125 0.014765625 0.0175125891118
418 1 -0.023034375 -0.00125 0.015946875 0.0293069007767
419 1 -0.023034375 -0.00125 0.017128125 0.0138696939255
420 1 -0.023034375 -0.00125 0.018309375 0.00474645121499
421 1 -0.023034375 -0.00125 0.019490625 0.0138696939255
422 1 -0.023034375 -0.00125 0.020671875 0.0243767756543
423 1 -0.023034375 -0.00125 0.021853125 0.114532075754
424 1 -0.023034375 -0.00125 0.023034375 0.303423296049
425 1 -0.023034375 -0.00125 0.024215625 0.175758893257
426 1 -0.023034375 -0.00125 0.025396875 0.000299132858986
427 1 -0.023034375 -0.00125 0.026578125 0.0
428 1 -0.023034375 -0.00125 0.027759375 5.44412977554e-09
429 1 -0.021853125 -0.00125 -0.028940625 0.0160293155099
430 1 -0.021853125 -0.00125 -0.027759375 0.0151198004572
431 1 -0.021853125 -0.00125 -0.026578125 2.79378975481e-22
432 1 -0.021853125 -0.00125 -0.025396875 0.0
433 1 -0.021853125 -0.00125 -0.024215625 0.00154813293271
434 1 -0.021853125 -0.00125 -0.023034375 0.000126658700522
435 1 -0.021853125 -0.00125 -0.021853125 0.00668182974929
436 1 -0.021853125 -0.00125 -0.020671875 0.00154813293271
437 1 -0.021853125 -0.00125 -0.019490625 0.0138696939255
438 1 -0.021853125 -0.00125 -0.018309375 0.0138696939255
439 1 -0.021853125 -0.00125 -0.017128125 0.0999860491522
440 1 -0.021853125 -0.00125 -0.015946875 0.241806908695
441 1 -0.021853125 -0.00125 -0.014765625 0.372493358291
442 1 -0.021853125 -0.00125 -0.013584375 0.624155217356
443 1 -0.021853125 -0.00125 -0.012403125 0.412738808647
444 1 -0.021853125 -0.00125 -0.011221875 0.00474644221021
445 1 -0.021853125 -0.00125 -0.010040625 0.00154813293271
446 1 -0.021853125 -0.00125 -0.008859375 0.000891017573599
447 1 -0.021853125 -0.00125 -0.007678125 0.133535038668
448 1 -0.021853125 -0.00125 -0.006496875 0.341241773452
449 1 -0.021853125 -0.00125 -0.005315625 0.0381872278205
450 1 -0.021853125 -0.00125 -0.004134375 0.235287296038
451 1 -0.021853125 -0.00125 -0.002953125 0.123928325831
452 1 -0.021853125 -0.00125 -0.001771875 0.114532075754
453 1 -0.021853125 -0.00125 -0.000590625 0.0347170643937
454 1 -0.021853125 -0.00125 0.000590625 0.0229929886664
455 1 -0.021853125 -0.00125 0.001771875 0.000891017573599
456 1 -0.021853125 -0.00125 0.002953125 0.000126657572948
457 1 -0.021853125 -0.00125 0.004134375 0.00474645121499
458 1 -0.021853125 -0.00125 0.005315625 0.0293069224194
459 1 -0.021853125 -0.00125 0.006496875 0.01386971523
460 1 -0.021853125 -0.00125 0.007678125 0.00154813293271
461 1 -0.021853125 -0.00125 0.008859375 0.143331930085
462 1 -0.021853125 -0.00125 0.010040625 0.303422785529
463 1 -0.021853125 -0.00125 0.011221875 0.332327069371
464 1 -0.021853125 -0.00125 0.012403125 0.0698876476892
465 1 -0.021853125 -0.00125 0.013584375 0.0085515641959
466 1 -0.021853125 -0.00125 0.014765625 0.0698876476892
467 1 -0.021853125 -0.00125 0.015946875 0.0622852495443
468 1 -0.021853125 -0.00125 0.017128125 0.0443322841124
469 1 -0.021853125 -0.00125 0.018309375 0.123928325831
470 1 -0.021853125 -0.00125 0.019490625 0.0443322841124
471 1 -0.021853125 -0.00125 0.020671875 0.27026908404
472 1 -0.021853125 -0.00125 0.021853125 0.383667992273
473 1 -0.021853125 -0.00125 0.023034375 0.0827704306511
474 1 -0.021853125 -0.00125 0.024215625 0.000299132858986
475 1 -0.021853125 -0.00125 0.025396875 0.0
476 1 -0.021853125 -0.00125 0.026578125 0.0
477 1 -0.021853125 -0.00125 0.027759375 0.0
478 1 -0.021853125 -0.00125 0.028940625 2.52587523623e-07
479 1 -0.020671875 -0.00125 -0.030121875 0.056860843261
480 1 -0.020671875 -0.00125 -0.028940625 0.21978261552
481 1 -0.020671875 -0.00125 -0.027759375 0.133535038668
482 1 -0.020671875 -0.00125 -0.026578125 0.000126658700522
483 1 -0.020671875 -0.00125 -0.025396875 1.74019667629e-11
484 1 -0.020671875 -0.00125 -0.024215625 0.000126658700522
485 1 -0.020671875 -0.00125 -0.023034375 0.00154813293271
486 1 -0.020671875 -0.00125 -0.021853125 0.000126658700522
487 1 -0.020671875 -0.00125 -0.020671875 0.000891023127979
488 1 -0.020671875 -0.00125 -0.019490625 0.00565998798415
489 1 -0.020671875 -0.00125 -0.018309375 0.0138696939255
490 1 -0.020671875 -0.00125 -0.017128125 0.0243767756543
491 1 -0.020671875 -0.00125 -0.015946875 0.241806908695
492 1 -0.020671875 -0.00125 -0.014765625 0.123928325831
493 1 -0.020671875 -0.00125 -0.013584375 0.465317379045
494 1 -0.020671875 -0.00125 -0.012403125 0.114532075754
495 1 -0.020671875 -0.00125 -0.011221875 0.000891023127979
496 1 -0.020671875 -0.00125 -0.010040625 0.0293069007767
497 1 -0.020671875 -0.00125 -0.008859375 0.0443322841124
498 1 -0.020671875 -0.00125 -0.007678125 0.14929428164
499 1 -0.020671875 -0.00125 -0.006496875 0.286812817882
500 1 -0.020671875 -0.00125 -0.005315625 0.263674497482
501 1 -0.020671875 -0.00125 -0.004134375 0.350163781038
502 1 -0.020671875 -0.00125 -0.002953125 0.224469737872
503 1 -0.020671875 -0.00125 -0.001771875 0.263674497482
504 1 -0.020671875 -0.00125 -0.000590625 0.091233852548
505 1 -0.020671875 -0.00125 0.000590625 0.0335974064356
506 1 -0.020671875 -0.00125 0.001771875 0.01386971523
507 1 -0.020671875 -0.00125 0.002953125 0.0999860491522
508 1 -0.020671875 -0.00125 0.004134375 0.186171540908
509 1 -0.020671875 -0.00125 0.005315625 0.39037452881
510 1 -0.020671875 -0.00125 0.006496875 0.095575355231
511 1 -0.020671875 -0.00125 0.007678125 0.01386971523
512 1 -0.020671875 -0.00125 0.008859375 0.143331930085
513 1 -0.020671875 -0.00125 0.010040625 0.203051971158
514 1 -0.020671875 -0.00125 0.011221875 0.482099221396
515 1 -0.020671875 -0.00125 0.012403125 0.224469737872
516 1 -0.020671875 -0.00125 0.013584375 0.0293069007767
517 1 -0.020671875 -0.00125 0.014765625 0.196692230435
518 1 -0.020671875 -0.00125 0.015946875 0.263674497482
519 1 -0.020671875 -0.00125 0.017128125 0.0443322841124
520 1 -0.020671875 -0.00125 0.018309375 0.0698876476892
521 1 -0.020671875 -0.00125 0.019490625 0.263674497482
522 1 -0.020671875 -0.00125 0.020671875 0.401555093596
523 1 -0.020671875 -0.00125 0.021853125 0.00474645121499
524 1 -0.020671875 -0.00125 0.023034375 4.52227625942e-06
525 1 -0.020671875 -0.00125 0.024215625 0.0
526 1 -0.020671875 -0.00125 0.025396875 0.0
527 1 -0.020671875 -0.00125 0.026578125 0.0
528 1 -0.020671875 -0.00125 0.027759375 0.0
529 1 -0.020671875 -0.00125 0.028940625 0.0
530 1 -0.020671875 -0.00125 0.030121875 0.0
531 1 -0.019490625 -0.00125 -0.031303125 0.0110733798845
532 1 -0.019490625 -0.00125 -0.030121875 0.149382581852
533 1 -0.019490625 -0.00125 -0.028940625 0.233118758306
534 1 -0.019490625 -0.00125 -0.027759375 0.361324775515
535 1 -0.019490625 -0.00125 -0.026578125 0.248346627637
536 1 -0.019490625 -0.00125 -0.025396875 0.205179062488
537 1 -0.019490625 -0.00125 -0.024215625 0.292343272873
538 1 -0.019490625 -0.00125 -0.023034375 0.219086517041
539 1 -0.019490625 -0.00125 -0.021853125 0.213721502584
540 1 -0.019490625 -0.00125 -0.020671875 0.208376116436
541 1 -0.019490625 -0.00125 -0.019490625 0.0823551049915
542 1 -0.019490625 -0.00125 -0.018309375 0.0267810506
543 1 -0.019490625 -0.00125 -0.017128125 0.0207856853608
544 1 -0.019490625 -0.00125 -0.015946875 0.0600766491627