ITEM: TIMESTEP
0
ITEM: NUMBER OF ATOMS
3080
ITEM: BOX BOUNDS ss ss ss
-3.7007399999999996e-02 3.7007399999999996e-02
-2.0002499999999999e-03 2.5000000000000004e-07
-3.7007399999999996e-02 3.7007399999999996e-02
ITEM: ATOMS id type x y z c_1
0 1 -0.037209375 -0.00125 -0.000590625 0.116073884862
1 1 -0.036028125 -0.00125 -0.007678125 0.0
2 1 -0.036028125 -0.00125 -0.006496875 0.0
3 1 -0.036028125 -0.00125 -0.005315625 0.0
4 1 -0.036028125 -0.00125 -0.004134375 0.0
5 1 -0.036028125 -0.00125 -0.002953125 3.70458005324e-08
6 1 -0.036028125 -0.00125 -0.001771875 0.0878124945944
7 1 -0.036028125 -0.00125 -0.000590625 0.191044218078
8 1 -0.036028125 -0.00125 0.000590625 0.514959776072
9 1 -0.036028125 -0.00125 0.001771875 0.381432457559
10 1 -0.036028125 -0.00125 0.002953125 0.00207820714601
11 1 -0.036028125 -0.00125 0.004134375 3.70458005324e-08
12 1 -0.036028125 -0.00125 0.005315625 0.0
13 1 -0.036028125 -0.00125 0.006496875 0.0
14 1 -0.036028125 -0.00125 0.007678125 0.000455413315469
15 1 -0.034846875 -0.00125 -0.011221875 0.00920066229086
16 1 -0.034846875 -0.00125 -0.010040625 0.00409061561812
17 1 -0.034846875 -0.00125 -0.008859375 5.44412977554e-09
18 1 -0.034846875 -0.00125 -0.007678125 0.0
19 1 -0.034846875 -0.00125 -0.006496875 0.0
20 1 -0.034846875 -0.00125 -0.005315625 0.0
21 1 -0.034846875 -0.00125 -0.004134375 0.0
22 1 -0.034846875 -0.00125 -0.002953125 0.0
23 1 -0.034846875 -0.00125 -0.001771875 6.01557630165e-07
24 1 -0.034846875 -0.00125 -0.000590625 0.133534957453
25 1 -0.034846875 -0.00125 0.000590625 0.614096532145
26 1 -0.034846875 -0.00125 0.001771875 0.175758979902
27 1 -0.034846875 -0.00125 0.002953125 0.00668182974929
28 1 -0.034846875 -0.00125 0.004134375 0.0
29 1 -0.034846875 -0.00125 0.005315625 0.0
30 1 -0.034846875 -0.00125 0.006496875 0.0
31 1 -0.034846875 -0.00125 0.007678125 0.0328183764962
32 1 -0.034846875 -0.00125 0.008859375 0.357943617791
33 1 -0.034846875 -0.00125 0.010040625 0.00805644213726
34 1 -0.034846875 -0.00125 0.011221875 0.0378159779673
35 1 -0.033665625 -0.00125 -0.013584375 0.000255126043584
36 1 -0.033665625 -0.00125 -0.012403125 0.372876626419
37 1 -0.033665625 -0.00125 -0.011221875 0.317990520901
38 1 -0.033665625 -0.00125 -0.010040625 0.000891023127979
39 1 -0.033665625 -0.00125 -0.008859375 0.0
40 1 -0.033665625 -0.00125 -0.007678125 0.0
41 1 -0.033665625 -0.00125 -0.006496875 0.0
42 1 -0.033665625 -0.00125 -0.005315625 1.74019667629e-11
43 1 -0.033665625 -0.00125 -0.004134375 1.74019667629e-11
44 1 -0.033665625 -0.00125 -0.002953125 6.01557630165e-07
45 1 -0.033665625 -0.00125 -0.001771875 0.00154813293271
46 1 -0.033665625 -0.00125 -0.000590625 0.226627730138
47 1 -0.033665625 -0.00125 0.000590625 0.647604772934
48 1 -0.033665625 -0.00125 0.001771875 0.252716967449
49 1 -0.033665625 -0.00125 0.002953125 0.00154813293271
50 1 -0.033665625 -0.00125 0.004134375 0.0
51 1 -0.033665625 -0.00125 0.005315625 0.0
52 1 -0.033665625 -0.00125 0.006496875 2.79378975481e-22
53 1 -0.033665625 -0.00125 0.007678125 0.0912339065983
54 1 -0.033665625 -0.00125 0.008859375 0.350163267536
55 1 -0.033665625 -0.00125 0.010040625 0.0347170407724
56 1 -0.033665625 -0.00125 0.011221875 0.0195453344755
57 1 -0.033665625 -0.00125 0.012403125 0.182529172436
58 1 -0.033665625 -0.00125 0.013584375 0.00230714126513
59 1 -0.032484375 -0.00125 -0.018309375 0.0
60 1 -0.032484375 -0.00125 -0.017128125 5.44412977554e-09
61 1 -0.032484375 -0.00125 -0.015946875 0.0
62 1 -0.032484375 -0.00125 -0.014765625 3.23614533612e-05
63 1 -0.032484375 -0.00125 -0.013584375 0.139637053311
64 1 -0.032484375 -0.00125 -0.012403125 0.355743098645
65 1 -0.032484375 -0.00125 -0.011221875 0.0364315046602
66 1 -0.032484375 -0.00125 -0.010040625 1.74019667629e-11
67 1 -0.032484375 -0.00125 -0.008859375 0.0
68 1 -0.032484375 -0.00125 -0.007678125 0.0
69 1 -0.032484375 -0.00125 -0.006496875 7.57356122124e-07
70 1 -0.032484375 -0.00125 -0.005315625 0.000741931199387
71 1 -0.032484375 -0.00125 -0.004134375 0.0042484826861
72 1 -0.032484375 -0.00125 -0.002953125 0.0319529262499
73 1 -0.032484375 -0.00125 -0.001771875 0.210512024955
74 1 -0.032484375 -0.00125 -0.000590625 0.57132175787
75 1 -0.032484375 -0.00125 0.000590625 0.55907200161
76 1 -0.032484375 -0.00125 0.001771875 0.454129285637
77 1 -0.032484375 -0.00125 0.002953125 0.10266431786
78 1 -0.032484375 -0.00125 0.004134375 0.00393677485419
79 1 -0.032484375 -0.00125 0.005315625 0.00118683217225
80 1 -0.032484375 -0.00125 0.006496875 4.17334236291e-05
81 1 -0.032484375 -0.00125 0.007678125 0.0738216883072
82 1 -0.032484375 -0.00125 0.008859375 0.332327115976
83 1 -0.032484375 -0.00125 0.010040625 0.123928325831
84 1 -0.032484375 -0.00125 0.011221875 0.00565999405337
85 1 -0.032484375 -0.00125 0.012403125 0.00154813127383
86 1 -0.032484375 -0.00125 0.013584375 0.204819197253
87 1 -0.032484375 -0.00125 0.014765625 0.0432294855295
88 1 -0.032484375 -0.00125 0.015946875 0.000865896224309
89 1 -0.032484375 -0.00125 0.017128125 0.0180058544457
90 1 -0.032484375 -0.00125 0.018309375 0.0
91 1 -0.031303125 -0.00125 -0.019490625 0.0
92 1 -0.031303125 -0.00125 -0.018309375 1.18026294841e-10
93 1 -0.031303125 -0.00125 -0.017128125 0.0
94 1 -0.031303125 -0.00125 -0.015946875 6.01557630165e-07
95 1 -0.031303125 -0.00125 -0.014765625 0.000126658700522
96 1 -0.031303125 -0.00125 -0.013584375 0.247255727123
97 1 -0.031303125 -0.00125 -0.012403125 0.224469737872
98 1 -0.031303125 -0.00125 -0.011221875 6.01557630165e-07
99 1 -0.031303125 -0.00125 -0.010040625 0.0
100 1 -0.031303125 -0.00125 -0.008859375 1.74019667629e-11
101 1 -0.031303125 -0.00125 -0.007678125 0.0
102 1 -0.031303125 -0.00125 -0.006496875 0.000741931199387
103 1 -0.031303125 -0.00125 -0.005315625 1.74019667629e-11
104 1 -0.031303125 -0.00125 -0.004134375 6.01557630165e-07
105 1 -0.031303125 -0.00125 -0.002953125 0.0443322974297
106 1 -0.031303125 -0.00125 -0.001771875 0.281290216208
107 1 -0.031303125 -0.00125 -0.000590625 0.235720949548
108 1 -0.031303125 -0.00125 0.000590625 0.389256495609
109 1 -0.031303125 -0.00125 0.001771875 0.383667992273
110 1 -0.031303125 -0.00125 0.002953125 0.196692230435
111 1 -0.031303125 -0.00125 0.004134375 0.196692230435
112 1 -0.031303125 -0.00125 0.005315625 0.0698876476892
113 1 -0.031303125 -0.00125 0.006496875 0.0253237448404
114 1 -0.031303125 -0.00125 0.007678125 0.0175126135393
115 1 -0.031303125 -0.00125 0.008859375 0.0381872649833
116 1 -0.031303125 -0.00125 0.010040625 1.74019667629e-11
117 1 -0.031303125 -0.00125 0.011221875 0.0
118 1 -0.031303125 -0.00125 0.012403125 0.0
119 1 -0.031303125 -0.00125 0.013584375 0.272470696803
120 1 -0.031303125 -0.00125 0.014765625 6.01557630165e-07
121 1 -0.031303125 -0.00125 0.015946875 0.0
122 1 -0.031303125 -0.00125 0.017128125 0.0
123 1 -0.031303125 -0.00125 0.018309375 1.61610918776e-06
124 1 -0.031303125 -0.00125 0.019490625 0.0
125 1 -0.030121875 -0.00125 -0.020671875 2.52587523623e-07
126 1 -0.030121875 -0.00125 -0.019490625 2.24994213629e-12
127 1 -0.030121875 -0.00125 -0.018309375 0.0
128 1 -0.030121875 -0.00125 -0.017128125 0.0
129 1 -0.030121875 -0.00125 -0.015946875 1.74019667629e-11
130 1 -0.030121875 -0.00125 -0.014765625 4.52220221462e-06
131 1 -0.030121875 -0.00125 -0.013584375 0.0698876151292
132 1 -0.030121875 -0.00125 -0.012403125 0.14929428164
133 1 -0.030121875 -0.00125 -0.011221875 0.00154813293271
134 1 -0.030121875 -0.00125 -0.010040625 0.00668182974929
135 1 -0.030121875 -0.00125 -0.008859375 0.000299132858986
136 1 -0.030121875 -0.00125 -0.007678125 0.00249557400626
137 1 -0.030121875 -0.00125 -0.006496875 0.000299131636816
138 1 -0.030121875 -0.00125 -0.005315625 0.0
139 1 -0.030121875 -0.00125 -0.004134375 1.74019667629e-11
140 1 -0.030121875 -0.00125 -0.002953125 0.010721438861
141 1 -0.030121875 -0.00125 -0.001771875 0.00154813293271
142 1 -0.030121875 -0.00125 -0.000590625 0.0999858445987
143 1 -0.030121875 -0.00125 0.000590625 0.224469737872
144 1 -0.030121875 -0.00125 0.001771875 0.0138696939255
145 1 -0.030121875 -0.00125 0.002953125 0.000299131636816
146 1 -0.030121875 -0.00125 0.004134375 0.00668182974929
147 1 -0.030121875 -0.00125 0.005315625 0.000299132858986
148 1 -0.030121875 -0.00125 0.006496875 7.02299466978e-08
149 1 -0.030121875 -0.00125 0.007678125 6.01557630165e-07
150 1 -0.030121875 -0.00125 0.008859375 0.00154812961495
151 1 -0.030121875 -0.00125 0.010040625 0.000299131636816
152 1 -0.030121875 -0.00125 0.011221875 1.74019667629e-11
153 1 -0.030121875 -0.00125 0.012403125 1.74019667629e-11
154 1 -0.030121875 -0.00125 0.013584375 0.205179062488
155 1 -0.030121875 -0.00125 0.014765625 1.74019667629e-11
156 1 -0.030121875 -0.00125 0.015946875 4.52227625942e-06
157 1 -0.030121875 -0.00125 0.017128125 1.74019667629e-11
158 1 -0.030121875 -0.00125 0.018309375 0.0
159 1 -0.030121875 -0.00125 0.019490625 0.0
160 1 -0.030121875 -0.00125 0.020671875 2.52587523623e-07
161 1 -0.028940625 -0.00125 -0.021853125 2.52587523623e-07
162 1 -0.028940625 -0.00125 -0.020671875 0.000245543891342
163 1 -0.028940625 -0.00125 -0.019490625 1.74014005978e-11
164 1 -0.028940625 -0.00125 -0.018309375 6.01557630165e-07
165 1 -0.028940625 -0.00125 -0.017128125 0.0
166 1 -0.028940625 -0.00125 -0.015946875 1.74019667629e-11
167 1 -0.028940625 -0.00125 -0.014765625 1.74019667629e-11
168 1 -0.028940625 -0.00125 -0.013584375 0.0982137222786
169 1 -0.028940625 -0.00125 -0.012403125 0.591734853249
170 1 -0.028940625 -0.00125 -0.011221875 0.186171540908
171 1 -0.028940625 -0.00125 -0.010040625 0.00668182974929
172 1 -0.028940625 -0.00125 -0.008859375 0.000299132858986
173 1 -0.028940625 -0.00125 -0.007678125 0.00154812961495
174 1 -0.028940625 -0.00125 -0.006496875 1.77729209249e-06
175 1 -0.028940625 -0.00125 -0.005315625 0.0
176 1 -0.028940625 -0.00125 -0.004134375 0.0
177 1 -0.028940625 -0.00125 -0.002953125 1.74019667629e-11
178 1 -0.028940625 -0.00125 -0.001771875 1.74019667629e-11
179 1 -0.028940625 -0.00125 -0.000590625 0.0564721545756
180 1 -0.028940625 -0.00125 0.000590625 0.0443322841124
181 1 -0.028940625 -0.00125 0.001771875 1.74019667629e-11
182 1 -0.028940625 -0.00125 0.002953125 0.0
183 1 -0.028940625 -0.00125 0.004134375 0.0
184 1 -0.028940625 -0.00125 0.005315625 0.0
185 1 -0.028940625 -0.00125 0.006496875 0.0
186 1 -0.028940625 -0.00125 0.007678125 0.0
187 1 -0.028940625 -0.00125 0.008859375 1.74019667629e-11
188 1 -0.028940625 -0.00125 0.010040625 0.000126657572948
189 1 -0.028940625 -0.00125 0.011221875 6.01557630165e-07
190 1 -0.028940625 -0.00125 0.012403125 0.00474645121499
191 1 -0.028940625 -0.00125 0.013584375 0.249438263817
192 1 -0.028940625 -0.00125 0.014765625 0.000126658700522
193 1 -0.028940625 -0.00125 0.015946875 0.0347170643937
194 1 -0.028940625 -0.00125 0.017128125 0.0912339065983
195 1 -0.028940625 -0.00125 0.018309375 0.000126658700522
196 1 -0.028940625 -0.00125 0.019490625 0.000198680669426
197 1 -0.028940625 -0.00125 0.020671875 0.000245543891342
198 1 -0.028940625 -0.00125 0.021853125 0.129318565008
199 1 -0.027759375 -0.00125 -0.024215625 0.0
200 1 -0.027759375 -0.00125 -0.023034375 0.0
201 1 -0.027759375 -0.00125 -0.021853125 0.0
202 1 -0.027759375 -0.00125 -0.020671875 1.74019667629e-11
203 1 -0.027759375 -0.00125 -0.019490625 1.5838087899e-05
204 1 -0.027759375 -0.00125 -0.018309375 6.01557630165e-07
205 1 -0.027759375 -0.00125 -0.017128125 0.0
206 1 -0.027759375 -0.00125 -0.015946875 1.74019667629e-11
207 1 -0.027759375 -0.00125 -0.014765625 0.00154813293271
208 1 -0.027759375 -0.00125 -0.013584375 0.210511756665
209 1 -0.027759375 -0.00125 -0.012403125 0.332327069371
210 1 -0.027759375 -0.00125 -0.011221875 0.292342717184
211 1 -0.027759375 -0.00125 -0.010040625 0.0443322841124
212 1 -0.027759375 -0.00125 -0.008859375 6.01557630165e-07
213 1 -0.027759375 -0.00125 -0.007678125 0.0
214 1 -0.027759375 -0.00125 -0.006496875 0.0
215 1 -0.027759375 -0.00125 -0.005315625 0.0
216 1 -0.027759375 -0.00125 -0.004134375 0.0
217 1 -0.027759375 -0.00125 -0.002953125 0.0
218 1 -0.027759375 -0.00125 -0.001771875 0.0
219 1 -0.027759375 -0.00125 -0.000590625 1.77728463318e-06
220 1 -0.027759375 -0.00125 0.000590625 0.000299132858986
221 1 -0.027759375 -0.00125 0.001771875 0.0
222 1 -0.027759375 -0.00125 0.002953125 0.0
223 1 -0.027759375 -0.00125 0.004134375 0.0
224 1 -0.027759375 -0.00125 0.005315625 0.0
225 1 -0.027759375 -0.00125 0.006496875 0.0
226 1 -0.027759375 -0.00125 0.007678125 0.0
227 1 -0.027759375 -0.00125 0.008859375 0.0
228 1 -0.027759375 -0.00125 0.010040625 1.74019667629e-11
229 1 -0.027759375 -0.00125 0.011221875 0.00474645121499
230 1 -0.027759375 -0.00125 0.012403125 0.263675002831
231 1 -0.027759375 -0.00125 0.013584375 0.180951096924
232 1 -0.027759375 -0.00125 0.014765625 0.00668184101894
233 1 -0.027759375 -0.00125 0.015946875 0.252716464147
234 1 -0.027759375 -0.00125 0.017128125 0.470910937833
235 1 -0.027759375 -0.00125 0.018309375 0.0509111013046
236 1 -0.027759375 -0.00125 0.019490625 0.0600766491627
237 1 -0.027759375 -0.00125 0.020671875 0.186171540908
238 1 -0.027759375 -0.00125 0.021853125 0.440967646734
239 1 -0.027759375 -0.00125 0.023034375 0.0418564289367
240 1 -0.027759375 -0.00125 0.024215625 0.0
241 1 -0.026578125 -0.00125 -0.026578125 0.0
242 1 -0.026578125 -0.00125 -0.025396875 0.0
243 1 -0.026578125 -0.00125 -0.024215625 0.0
244 1 -0.026578125 -0.00125 -0.023034375 1.74014005978e-11
245 1 -0.026578125 -0.00125 -0.021853125 3.07878012444e-05
246 1 -0.026578125 -0.00125 -0.020671875 0.00037578707255
247 1 -0.026578125 -0.00125 -0.019490625 0.00701009921196
248 1 -0.026578125 -0.00125 -0.018309375 0.00118682874801
249 1 -0.026578125 -0.00125 -0.017128125 0.00037578590857
250 1 -0.026578125 -0.00125 -0.015946875 0.00154813293271
251 1 -0.026578125 -0.00125 -0.014765625 0.00349873524201
252 1 -0.026578125 -0.00125 -0.013584375 0.285155510732
253 1 -0.026578125 -0.00125 -0.012403125 0.777685495866
254 1 -0.026578125 -0.00125 -0.011221875 0.352395273755
255 1 -0.026578125 -0.00125 -0.010040625 0.141358161149
256 1 -0.026578125 -0.00125 -0.008859375 0.000535662176186
257 1 -0.026578125 -0.00125 -0.007678125 0.0
258 1 -0.026578125 -0.00125 -0.006496875 4.17336559161e-05
259 1 -0.026578125 -0.00125 -0.005315625 0.0122342732579
260 1 -0.026578125 -0.00125 -0.004134375 0.00393677485419
261 1 -0.026578125 -0.00125 -0.002953125 0.00474644221021
262 1 -0.026578125 -0.00125 -0.001771875 0.000375787654541
263 1 -0.026578125 -0.00125 -0.000590625 0.00255156276795
264 1 -0.026578125 -0.00125 0.000590625 0.0167442306548
265 1 -0.026578125 -0.00125 0.001771875 0.00393677803167
266 1 -0.026578125 -0.00125 0.002953125 1.58378774223e-05
267 1 -0.026578125 -0.00125 0.004134375 3.14925560351e-13
268 1 -0.026578125 -0.00125 0.005315625 2.79378975481e-22
269 1 -0.026578125 -0.00125 0.006496875 2.71829692303e-12
270 1 -0.026578125 -0.00125 0.007678125 0.0
271 1 -0.026578125 -0.00125 0.008859375 0.0
272 1 -0.026578125 -0.00125 0.010040625 0.000126657572948
273 1 -0.026578125 -0.00125 0.011221875 0.210512024955
274 1 -0.026578125 -0.00125 0.012403125 0.366908379458
275 1 -0.026578125 -0.00125 0.013584375 0.0327697793482
276 1 -0.026578125 -0.00125 0.014765625 0.00509913706449
277 1 -0.026578125 -0.00125 0.015946875 0.323421419327
278 1 -0.026578125 -0.00125 0.017128125 0.346817124959
279 1 -0.026578125 -0.00125 0.018309375 0.0600766491627
280 1 -0.026578125 -0.00125 0.019490625 0.0402873163898
281 1 -0.026578125 -0.00125 0.020671875 0.186171278084
282 1 -0.026578125 -0.00125 0.021853125 0.131597898254
283 1 -0.026578125 -0.00125 0.023034375 0.00284459054634
284 1 -0.026578125 -0.00125 0.024215625 2.38565417865e-06
285 1 -0.026578125 -0.00125 0.025396875 1.27653918126e-20
286 1 -0.026578125 -0.00125 0.026578125 0.0225621152214
287 1 -0.025396875 -0.00125 -0.026578125 0.0
288 1 -0.025396875 -0.00125 -0.025396875 0.0
289 1 -0.025396875 -0.00125 -0.024215625 0.0
290 1 -0.025396875 -0.00125 -0.023034375 1.74019667629e-11
291 1 -0.025396875 -0.00125 -0.021853125 1.74019667629e-11
292 1 -0.025396875 -0.00125 -0.020671875 0.00154813293271
293 1 -0.025396875 -0.00125 -0.019490625 0.00987185758727
294 1 -0.025396875 -0.00125 -0.018309375 0.0138696939255
295 1 -0.025396875 -0.00125 -0.017128125 0.0138696939255
296 1 -0.025396875 -0.00125 -0.015946875 0.0509111013046
297 1 -0.025396875 -0.00125 -0.014765625 0.133535038668
298 1 -0.025396875 -0.00125 -0.013584375 0.258189948267
299 1 -0.025396875 -0.00125 -0.012403125 0.951771205563
300 1 -0.025396875 -0.00125 -0.011221875 0.321195978177
301 1 -0.025396875 -0.00125 -0.010040625 0.109003673167
302 1 -0.025396875 -0.00125 -0.008859375 0.0243767756543
303 1 -0.025396875 -0.00125 -0.007678125 0.0443322841124
304 1 -0.025396875 -0.00125 -0.006496875 0.114532095179
305 1 -0.025396875 -0.00125 -0.005315625 0.186171540908
306 1 -0.025396875 -0.00125 -0.004134375 0.186171540908
307 1 -0.025396875 -0.00125 -0.002953125 0.224469737872
308 1 -0.025396875 -0.00125 -0.001771875 0.241806908695
309 1 -0.025396875 -0.00125 -0.000590625 0.157333659238
310 1 -0.025396875 -0.00125 0.000590625 0.281290724237
311 1 -0.025396875 -0.00125 0.001771875 0.310082079515
312 1 -0.025396875 -0.00125 0.002953125 0.07461867463
313 1 -0.025396875 -0.00125 0.004134375 0.14929428164
314 1 -0.025396875 -0.00125 0.005315625 0.114532075754
315 1 -0.025396875 -0.00125 0.006496875 0.186171278084
316 1 -0.025396875 -0.00125 0.007678125 0.114532075754
317 1 -0.025396875 -0.00125 0.008859375 0.0324964072365
318 1 -0.025396875 -0.00125 0.010040625 0.0243767756543
319 1 -0.025396875 -0.00125 0.011221875 0.224469737872
320 1 -0.025396875 -0.00125 0.012403125 0.350163267536
321 1 -0.025396875 -0.00125 0.013584375 0.159358746116
322 1 -0.025396875 -0.00125 0.014765625 0.123928325831
323 1 -0.025396875 -0.00125 0.015946875 0.540276619563
324 1 -0.025396875 -0.00125 0.017128125 0.159358746116
325 1 -0.025396875 -0.00125 0.018309375 0.0138696939255
326 1 -0.025396875 -0.00125 0.019490625 0.0698874523288
327 1 -0.025396875 -0.00125 0.020671875 0.0509111013046
328 1 -0.025396875 -0.00125 0.021853125 0.01386971523
329 1 -0.025396875 -0.00125 0.023034375 0.000126658700522
330 1 -0.025396875 -0.00125 0.024215625 0.0
331 1 -0.025396875 -0.00125 0.025396875 1.74019667629e-11
332 1 -0.025396875 -0.00125 0.026578125 0.000203625752038
333 1 -0.024215625 -0.00125 -0.027759375 0.0
334 1 -0.024215625 -0.00125 -0.026578125 0.0
335 1 -0.024215625 -0.00125 -0.025396875 0.0
336 1 -0.024215625 -0.00125 -0.024215625 0.0
337 1 -0.024215625 -0.00125 -0.023034375 0.0
338 1 -0.024215625 -0.00125 -0.021853125 6.01557630165e-07
339 1 -0.024215625 -0.00125 -0.020671875 0.00474645121499
340 1 -0.024215625 -0.00125 -0.019490625 0.0034987411085
341 1 -0.024215625 -0.00125 -0.018309375 0.0293069007767
342 1 -0.024215625 -0.00125 -0.017128125 0.0138696939255
343 1 -0.024215625 -0.00125 -0.015946875 0.0243767756543
344 1 -0.024215625 -0.00125 -0.014765625 0.0443322841124
345 1 -0.024215625 -0.00125 -0.013584375 0.154307310461
346 1 -0.024215625 -0.00125 -0.012403125 0.678804021823
347 1 -0.024215625 -0.00125 -0.011221875 0.224469737872
348 1 -0.024215625 -0.00125 -0.010040625 0.241807455165
349 1 -0.024215625 -0.00125 -0.008859375 0.149294783073
350 1 -0.024215625 -0.00125 -0.007678125 0.175758979902
351 1 -0.024215625 -0.00125 -0.006496875 0.261479452685
352 1 -0.024215625 -0.00125 -0.005315625 0.0698876476892
353 1 -0.024215625 -0.00125 -0.004134375 0.0347170407724
354 1 -0.024215625 -0.00125 -0.002953125 0.0107214510125
355 1 -0.024215625 -0.00125 -0.001771875 0.0999860491522
356 1 -0.024215625 -0.00125 -0.000590625 0.0502343294498
357 1 -0.024215625 -0.00125 0.000590625 0.163426905077
358 1 -0.024215625 -0.00125 0.001771875 0.123928325831
359 1 -0.024215625 -0.00125 0.002953125 0.281290216208
360 1 -0.024215625 -0.00125 0.004134375 0.27026908404
361 1 -0.024215625 -0.00125 0.005315625 0.263674497482
362 1 -0.024215625 -0.00125 0.006496875 0.238544459553
363 1 -0.024215625 -0.00125 0.007678125 0.196692230435
364 1 -0.024215625 -0.00125 0.008859375 0.224470234239
365 1 -0.024215625 -0.00125 0.010040625 0.091233852548
366 1 -0.024215625 -0.00125 0.011221875 0.343471904739
367 1 -0.024215625 -0.00125 0.012403125 0.448535864695
368 1 -0.024215625 -0.00125 0.013584375 0.224469467126
369 1 -0.024215625 -0.00125 0.014765625 0.522376039939
370 1 -0.024215625 -0.00125 0.015946875 0.609625938955
371 1 -0.024215625 -0.00125 0.017128125 0.091233852548
372 1 -0.024215625 -0.00125 0.018309375 0.00154813293271
373 1 -0.024215625 -0.00125 0.019490625 0.0293069007767
374 1 -0.024215625 -0.00125 0.020671875 0.0293069007767
375 1 -0.024215625 -0.00125 0.021853125 0.0293069224194
376 1 -0.024215625 -0.00125 0.023034375 6.01557630165e-07
377 1 -0.024215625 -0.00125 0.024215625 0.0
378 1 -0.024215625 -0.00125 0.025396875 0.0
379 1 -0.024215625 -0.00125 0.026578125 0.0
380 1 -0.024215625 -0.00125 0.027759375 0.0
381 1 -0.023034375 -0.00125 -0.027759375 0.00106278235535
382 1 -0.023034375 -0.00125 -0.026578125 0.0
383 1 -0.023034375 -0.00125 -0.025396875 0.0
384 1 -0.023034375 -0.00125 -0.024215625 0.0
385 1 -0.023034375 -0.00125 -0.023034375 1.22156214432e-15
386 1 -0.023034375 -0.00125 -0.021853125 6.01557630165e-07
387 1 -0.023034375 -0.00125 -0.020671875 0.000126658700522
388 1 -0.023034375 -0.00125 -0.019490625 3.07879020573e-05
389 1 -0.023034375 -0.00125 -0.018309375 0.0138696939255
390 1 -0.023034375 -0.00125 -0.017128125 0.0698876476892
391 1 -0.023034375 -0.00125 -0.015946875 0.0293069007767
392 1 -0.023034375 -0.00125 -0.014765625 0.0509111013046
393 1 -0.023034375 -0.00125 -0.013584375 0.123928325831
394 1 -0.023034375 -0.00125 -0.012403125 0.470910937833
395 1 -0.023034375 -0.00125 -0.011221875 0.569364654976
396 1 -0.023034375 -0.00125 -0.010040625 0.558176892949
397 1 -0.023034375 -0.00125 -0.008859375 0.281290170023
398 1 -0.023034375 -0.00125 -0.007678125 0.0999860491522
399 1 -0.023034375 -0.00125 -0.006496875 0.169569358233
400 1 -0.023034375 -0.00125 -0.005315625 0.129668530436
401 1 -0.023034375 -0.00125 -0.004134375 0.114532075754
402 1 -0.023034375 -0.00125 -0.002953125 0.0827704306511
403 1 -0.023034375 -0.00125 -0.001771875 0.133535038668
404 1 -0.023034375 -0.00125 -0.000590625 0.0293069007767
405 1 -0.023034375 -0.00125 0.000590625 0.0778406238772
406 1 -0.023034375 -0.00125 0.001771875 0.0698876476892
407 1 -0.023034375 -0.00125 0.002953125 0.159358746116
408 1 -0.023034375 -0.00125 0.004134375 0.224469737872
409 1 -0.023034375 -0.00125 0.005315625 0.0999860491522
410 1 -0.023034375 -0.00125 0.006496875 0.0293069115981
411 1 -0.023034375 -0.00125 0.007678125 0.000299131636816
412 1 -0.023034375 -0.00125 0.008859375 0.0347170407724
413 1 -0.023034375 -0.00125 0.010040625 0.01386971523
414 1 -0.023034375 -0.00125 0.011221875 0.412738808647
415 1 -0.023034375 -0.00125 0.012403125 0.678803463323
416 1 -0.023034375 -0.00125 0.013584375 0.540276900439
417 1 -0.023034375 -0.00125 0.014765625 0.540276619563
418 1 -0.023034375 -0.00125 0.015946875 0.281290216208
419 1 -0.023034375 -0.00125 0.017128125 0.123928325831
420 1 -0.023034375 -0.00125 0.018309375 0.000126658700522
421 1 -0.023034375 -0.00125 0.019490625 0.0138696939255
422 1 -0.023034375 -0.00125 0.020671875 0.0999860491522
423 1 -0.023034375 -0.00125 0.021853125 0.00154813293271
424 1 -0.023034375 -0.00125 0.023034375 0.000126657572948
425 1 -0.023034375 -0.00125 0.024215625 1.74019667629e-11
426 1 -0.023034375 -0.00125 0.025396875 1.74019667629e-11
427 1 -0.023034375 -0.00125 0.026578125 0.0
428 1 -0.023034375 -0.00125 0.027759375 0.00106278235535
429 1 -0.021853125 -0.00125 -0.028940625 0.268719494335
430 1 -0.021853125 -0.00125 -0.027759375 0.279862138418
431 1 -0.021853125 -0.00125 -0.026578125 0.00118682874801
432 1 -0.021853125 -0.00125 -0.025396875 0.000126658700522
433 1 -0.021853125 -0.00125 -0.024215625 0.0
434 1 -0.021853125 -0.00125 -0.023034375 0.0
435 1 -0.021853125 -0.00125 -0.021853125 0.0
436 1 -0.021853125 -0.00125 -0.020671875 0.0
437 1 -0.021853125 -0.00125 -0.019490625 1.28754471296e-08
438 1 -0.021853125 -0.00125 -0.018309375 0.00154813293271
439 1 -0.021853125 -0.00125 -0.017128125 0.0443322841124
440 1 -0.021853125 -0.00125 -0.015946875 0.0443322841124
441 1 -0.021853125 -0.00125 -0.014765625 0.0138696939255
442 1 -0.021853125 -0.00125 -0.013584375 0.11175699854
443 1 -0.021853125 -0.00125 -0.012403125 0.562652305368
444 1 -0.021853125 -0.00125 -0.011221875 0.678804021823
445 1 -0.021853125 -0.00125 -0.010040625 0.792689826366
446 1 -0.021853125 -0.00125 -0.008859375 0.40155560828
447 1 -0.021853125 -0.00125 -0.007678125 0.0347170407724
448 1 -0.021853125 -0.00125 -0.006496875 0.00100194905618
449 1 -0.021853125 -0.00125 -0.005315625 0.0698876802493
450 1 -0.021853125 -0.00125 -0.004134375 0.224469737872
451 1 -0.021853125 -0.00125 -0.002953125 0.310082079515
452 1 -0.021853125 -0.00125 -0.001771875 0.27026908404
453 1 -0.021853125 -0.00125 -0.000590625 0.186172066556
454 1 -0.021853125 -0.00125 0.000590625 0.219086517041
455 1 -0.021853125 -0.00125 0.001771875 0.241806863156
456 1 -0.021853125 -0.00125 0.002953125 0.263675002831
457 1 -0.021853125 -0.00125 0.004134375 0.241806863156
458 1 -0.021853125 -0.00125 0.005315625 0.114532114604
459 1 -0.021853125 -0.00125 0.006496875 0.0207857661482
460 1 -0.021853125 -0.00125 0.007678125 4.52220221462e-06
461 1 -0.021853125 -0.00125 0.008859375 4.52220221462e-06
462 1 -0.021853125 -0.00125 0.010040625 4.52227625942e-06
463 1 -0.021853125 -0.00125 0.011221875 0.252716464147
464 1 -0.021853125 -0.00125 0.012403125 0.667672837419
465 1 -0.021853125 -0.00125 0.013584375 0.549227141479
466 1 -0.021853125 -0.00125 0.014765625 0.0622852495443
467 1 -0.021853125 -0.00125 0.015946875 0.0622852495443
468 1 -0.021853125 -0.00125 0.017128125 0.0293069007767
469 1 -0.021853125 -0.00125 0.018309375 0.00154813293271
470 1 -0.021853125 -0.00125 0.019490625 0.0802910104399
471 1 -0.021853125 -0.00125 0.020671875 0.0778403011007
472 1 -0.021853125 -0.00125 0.021853125 0.00154813293271
473 1 -0.021853125 -0.00125 0.023034375 4.52220221462e-06
474 1 -0.021853125 -0.00125 0.024215625 1.74019667629e-11
475 1 -0.021853125 -0.00125 0.025396875 4.52227625942e-06
476 1 -0.021853125 -0.00125 0.026578125 1.74019667629e-11
477 1 -0.021853125 -0.00125 0.027759375 0.00713501987779
478 1 -0.021853125 -0.00125 0.028940625 0.0904523633156
479 1 -0.020671875 -0.00125 -0.030121875 8.01171833736e-10
480 1 -0.020671875 -0.00125 -0.028940625 0.000245540111831
481 1 -0.020671875 -0.00125 -0.027759375 0.372493358291
482 1 -0.020671875 -0.00125 -0.026578125 0.578313086067
483 1 -0.020671875 -0.00125 -0.025396875 0.292342717184
484 1 -0.020671875 -0.00125 -0.024215625 0.14929428164
485 1 -0.020671875 -0.00125 -0.023034375 0.0443322841124
486 1 -0.020671875 -0.00125 -0.021853125 0.000126658700522
487 1 -0.020671875 -0.00125 -0.020671875 0.000126658700522
488 1 -0.020671875 -0.00125 -0.019490625 2.79378975481e-22
489 1 -0.020671875 -0.00125 -0.018309375 0.0032259559905
490 1 -0.020671875 -0.00125 -0.017128125 0.0509111013046
491 1 -0.020671875 -0.00125 -0.015946875 0.0443322841124
492 1 -0.020671875 -0.00125 -0.014765625 0.0293069007767
493 1 -0.020671875 -0.00125 -0.013584375 0.0564721545756
494 1 -0.020671875 -0.00125 -0.012403125 0.482099736343
495 1 -0.020671875 -0.00125 -0.011221875 0.638674944179
496 1 -0.020671875 -0.00125 -0.010040625 0.736325502518
497 1 -0.020671875 -0.00125 -0.008859375 0.656528095261
498 1 -0.020671875 -0.00125 -0.007678125 0.339012100871
499 1 -0.020671875 -0.00125 -0.006496875 7.46395957453e-06
500 1 -0.020671875 -0.00125 -0.005315625 0.00474645121499
501 1 -0.020671875 -0.00125 -0.004134375 0.292343226566
502 1 -0.020671875 -0.00125 -0.002953125 0.453010380117
503 1 -0.020671875 -0.00125 -0.001771875 0.477624006874
504 1 -0.020671875 -0.00125 -0.000590625 0.40155560828
505 1 -0.020671875 -0.00125 0.000590625 0.381432457559
506 1 -0.020671875 -0.00125 0.001771875 0.361324541927
507 1 -0.020671875 -0.00125 0.002953125 0.39037452881
508 1 -0.020671875 -0.00125 0.004134375 0.224469737872
509 1 -0.020671875 -0.00125 0.005315625 0.0381872278205
510 1 -0.020671875 -0.00125 0.006496875 7.46384686318e-06
511 1 -0.020671875 -0.00125 0.007678125 0.000126658700522
512 1 -0.020671875 -0.00125 0.008859375 0.00668184101894
513 1 -0.020671875 -0.00125 0.010040625 1.74019667629e-11
514 1 -0.020671875 -0.00125 0.011221875 0.17575893658
515 1 -0.020671875 -0.00125 0.012403125 0.725326743907
516 1 -0.020671875 -0.00125 0.013584375 0.292343272873
517 1 -0.020671875 -0.00125 0.014765625 0.0293069007767
518 1 -0.020671875 -0.00125 0.015946875 0.0293069007767
519 1 -0.020671875 -0.00125 0.017128125 0.0293069007767
520 1 -0.020671875 -0.00125 0.018309375 0.0698876476892
521 1 -0.020671875 -0.00125 0.019490625 0.11175699854
522 1 -0.020671875 -0.00125 0.020671875 0.000126658700522
523 1 -0.020671875 -0.00125 0.021853125 0.000126658700522
524 1 -0.020671875 -0.00125 0.023034375 1.74019667629e-11
525 1 -0.020671875 -0.00125 0.024215625 1.74019667629e-11
526 1 -0.020671875 -0.00125 0.025396875 1.74019667629e-11
527 1 -0.020671875 -0.00125 0.026578125 4.52223923689e-06
528 1 -0.020671875 -0.00125 0.027759375 0.0443323240644
529 1 -0.020671875 -0.00125 0.028940625 0.178504266497
530 1 -0.020671875 -0.00125 0.030121875 0.0904523633156
531 1 -0.019490625 -0.00125 -0.031303125 8.50218305249e-07
532 1 -0.019490625 -0.00125 -0.030121875 1.28754471296e-08
533 1 -0.019490625 -0.00125 -0.028940625 1.77731074088e-06
534 1 -0.019490625 -0.00125 -0.027759375 1.58378774223e-05
535 1 -0.019490625 -0.00125 -0.026578125 0.0102912074392
536 1 -0.019490625 -0.00125 -0.025396875 0.0187026608024
537 1 -0.019490625 -0.00125 -0.024215625 0.0660410711922
538 1 -0.019490625 -0.00125 -0.023034375 0.219086786891
539 1 -0.019490625 -0.00125 -0.021853125 0.366908379458
540 1 -0.019490625 -0.00125 -0.020671875 0.306751214506
541 1 -0.019490625 -0.00125 -0.019490625 0.339569614818
542 1 -0.019490625 -0.00125 -0.018309375 0.505594105103
543 1 -0.019490625 -0.00125 -0.017128125 0.463079531992
544 1 -0.019490625 -0.00125 -0.015946875 0.361324775515