ITEM: TIMESTEP
0
ITEM: NUMBER OF ATOMS
3080
ITEM: BOX BOUNDS ss ss ss
-3.7007399999999996e-02 3.7007399999999996e-02
-2.0002499999999999e-03 2.5000000000000004e-07
-3.7007399999999996e-02 3.7007399999999996e-02
ITEM: ATOMS id type x y z c_1
0 1 -0.037209375 -0.00125 -0.000590625 1.0
1 1 -0.036028125 -0.00125 -0.007678125 0.00920066229086
2 1 -0.036028125 -0.00125 -0.006496875 0.0
3 1 -0.036028125 -0.00125 -0.005315625 0.0
4 1 -0.036028125 -0.00125 -0.004134375 0.0
5 1 -0.036028125 -0.00125 -0.002953125 0.0
6 1 -0.036028125 -0.00125 -0.001771875 0.0
7 1 -0.036028125 -0.00125 -0.000590625 0.00106278235535
8 1 -0.036028125 -0.00125 0.000590625 0.00165450333231
9 1 -0.036028125 -0.00125 0.001771875 0.0
10 1 -0.036028125 -0.00125 0.002953125 0.0
11 1 -0.036028125 -0.00125 0.004134375 0.0
12 1 -0.036028125 -0.00125 0.005315625 0.0
13 1 -0.036028125 -0.00125 0.006496875 0.0
14 1 -0.036028125 -0.00125 0.007678125 0.000455413315469
15 1 -0.034846875 -0.00125 -0.011221875 0.175581592063
16 1 -0.034846875 -0.00125 -0.010040625 3.70458005324e-08
17 1 -0.034846875 -0.00125 -0.008859375 0.00482559872057
18 1 -0.034846875 -0.00125 -0.007678125 0.150411393909
19 1 -0.034846875 -0.00125 -0.006496875 0.123928564454
20 1 -0.034846875 -0.00125 -0.005315625 0.0199375166154
21 1 -0.034846875 -0.00125 -0.004134375 0.00474645121499
22 1 -0.034846875 -0.00125 -0.002953125 6.01557630165e-07
23 1 -0.034846875 -0.00125 -0.001771875 0.000126657572948
24 1 -0.034846875 -0.00125 -0.000590625 0.000126658700522
25 1 -0.034846875 -0.00125 0.000590625 1.74019667629e-11
26 1 -0.034846875 -0.00125 0.001771875 4.52220221462e-06
27 1 -0.034846875 -0.00125 0.002953125 6.01557630165e-07
28 1 -0.034846875 -0.00125 0.004134375 1.74019667629e-11
29 1 -0.034846875 -0.00125 0.005315625 0.0
30 1 -0.034846875 -0.00125 0.006496875 6.01557630165e-07
31 1 -0.034846875 -0.00125 0.007678125 0.00713501987779
32 1 -0.034846875 -0.00125 0.008859375 0.0418564289367
33 1 -0.034846875 -0.00125 0.010040625 0.0
34 1 -0.034846875 -0.00125 0.011221875 0.0
35 1 -0.033665625 -0.00125 -0.013584375 0.175581592063
36 1 -0.033665625 -0.00125 -0.012403125 0.0559248717127
37 1 -0.033665625 -0.00125 -0.011221875 0.305250843947
38 1 -0.033665625 -0.00125 -0.010040625 0.21372123369
39 1 -0.033665625 -0.00125 -0.008859375 0.292342717184
40 1 -0.033665625 -0.00125 -0.007678125 0.540277181315
41 1 -0.033665625 -0.00125 -0.006496875 0.393728561602
42 1 -0.033665625 -0.00125 -0.005315625 0.430635859907
43 1 -0.033665625 -0.00125 -0.004134375 0.27026908404
44 1 -0.033665625 -0.00125 -0.002953125 0.091233852548
45 1 -0.033665625 -0.00125 -0.001771875 0.0999860863438
46 1 -0.033665625 -0.00125 -0.000590625 0.000299132858986
47 1 -0.033665625 -0.00125 0.000590625 3.07878012444e-05
48 1 -0.033665625 -0.00125 0.001771875 0.149294365213
49 1 -0.033665625 -0.00125 0.002953125 0.21372123369
50 1 -0.033665625 -0.00125 0.004134375 0.0622852805866
51 1 -0.033665625 -0.00125 0.005315625 0.000891023127979
52 1 -0.033665625 -0.00125 0.006496875 0.00118682874801
53 1 -0.033665625 -0.00125 0.007678125 0.0698876476892
54 1 -0.033665625 -0.00125 0.008859375 0.00474645121499
55 1 -0.033665625 -0.00125 0.010040625 0.000126658700522
56 1 -0.033665625 -0.00125 0.011221875 0.0
57 1 -0.033665625 -0.00125 0.012403125 0.0
58 1 -0.033665625 -0.00125 0.013584375 0.0
59 1 -0.032484375 -0.00125 -0.018309375 0.0
60 1 -0.032484375 -0.00125 -0.017128125 5.44412977554e-09
61 1 -0.032484375 -0.00125 -0.015946875 0.0197496077502
62 1 -0.032484375 -0.00125 -0.014765625 0.0264440887464
63 1 -0.032484375 -0.00125 -0.013584375 0.244882202668
64 1 -0.032484375 -0.00125 -0.012403125 0.274122632374
65 1 -0.032484375 -0.00125 -0.011221875 0.258190177523
66 1 -0.032484375 -0.00125 -0.010040625 0.266970320936
67 1 -0.032484375 -0.00125 -0.008859375 0.154307352577
68 1 -0.032484375 -0.00125 -0.007678125 0.033597359974
69 1 -0.032484375 -0.00125 -0.006496875 0.00646859883655
70 1 -0.032484375 -0.00125 -0.005315625 0.0122342600864
71 1 -0.032484375 -0.00125 -0.004134375 0.0122342732579
72 1 -0.032484375 -0.00125 -0.002953125 0.0698874523288
73 1 -0.032484375 -0.00125 -0.001771875 0.00566000214566
74 1 -0.032484375 -0.00125 -0.000590625 1.74019667629e-11
75 1 -0.032484375 -0.00125 0.000590625 0.0143844895046
76 1 -0.032484375 -0.00125 0.001771875 0.286812771634
77 1 -0.032484375 -0.00125 0.002953125 0.339012100871
78 1 -0.032484375 -0.00125 0.004134375 0.0722376947642
79 1 -0.032484375 -0.00125 0.005315625 0.000375784453599
80 1 -0.032484375 -0.00125 0.006496875 0.000696613743017
81 1 -0.032484375 -0.00125 0.007678125 0.00474645121499
82 1 -0.032484375 -0.00125 0.008859375 0.000535662176186
83 1 -0.032484375 -0.00125 0.010040625 1.77731074088e-06
84 1 -0.032484375 -0.00125 0.011221875 0.0
85 1 -0.032484375 -0.00125 0.012403125 0.0
86 1 -0.032484375 -0.00125 0.013584375 0.0
87 1 -0.032484375 -0.00125 0.014765625 0.0
88 1 -0.032484375 -0.00125 0.015946875 0.0
89 1 -0.032484375 -0.00125 0.017128125 0.0
90 1 -0.032484375 -0.00125 0.018309375 0.0
91 1 -0.031303125 -0.00125 -0.019490625 0.0
92 1 -0.031303125 -0.00125 -0.018309375 0.0
93 1 -0.031303125 -0.00125 -0.017128125 1.74019667629e-11
94 1 -0.031303125 -0.00125 -0.015946875 0.000126657572948
95 1 -0.031303125 -0.00125 -0.014765625 0.000299132858986
96 1 -0.031303125 -0.00125 -0.013584375 0.0243767756543
97 1 -0.031303125 -0.00125 -0.012403125 0.036431516761
98 1 -0.031303125 -0.00125 -0.011221875 0.00154812961495
99 1 -0.031303125 -0.00125 -0.010040625 0.0293069007767
100 1 -0.031303125 -0.00125 -0.008859375 0.00154812961495
101 1 -0.031303125 -0.00125 -0.007678125 1.74019667629e-11
102 1 -0.031303125 -0.00125 -0.006496875 2.79378975481e-22
103 1 -0.031303125 -0.00125 -0.005315625 6.01557630165e-07
104 1 -0.031303125 -0.00125 -0.004134375 6.01557630165e-07
105 1 -0.031303125 -0.00125 -0.002953125 0.000126657572948
106 1 -0.031303125 -0.00125 -0.001771875 4.52220221462e-06
107 1 -0.031303125 -0.00125 -0.000590625 3.70458005324e-08
108 1 -0.031303125 -0.00125 0.000590625 0.114532075754
109 1 -0.031303125 -0.00125 0.001771875 0.252716464147
110 1 -0.031303125 -0.00125 0.002953125 0.0243767756543
111 1 -0.031303125 -0.00125 0.004134375 1.22156214432e-15
112 1 -0.031303125 -0.00125 0.005315625 0.0
113 1 -0.031303125 -0.00125 0.006496875 3.14925560351e-13
114 1 -0.031303125 -0.00125 0.007678125 0.00474645121499
115 1 -0.031303125 -0.00125 0.008859375 0.00474645121499
116 1 -0.031303125 -0.00125 0.010040625 0.000126658700522
117 1 -0.031303125 -0.00125 0.011221875 0.0
118 1 -0.031303125 -0.00125 0.012403125 0.0
119 1 -0.031303125 -0.00125 0.013584375 0.0
120 1 -0.031303125 -0.00125 0.014765625 0.0
121 1 -0.031303125 -0.00125 0.015946875 0.0
122 1 -0.031303125 -0.00125 0.017128125 0.0
123 1 -0.031303125 -0.00125 0.018309375 0.0
124 1 -0.031303125 -0.00125 0.019490625 0.0
125 1 -0.030121875 -0.00125 -0.020671875 0.0
126 1 -0.030121875 -0.00125 -0.019490625 0.0
127 1 -0.030121875 -0.00125 -0.018309375 0.0
128 1 -0.030121875 -0.00125 -0.017128125 4.52220221462e-06
129 1 -0.030121875 -0.00125 -0.015946875 0.000299131636816
130 1 -0.030121875 -0.00125 -0.014765625 1.74019667629e-11
131 1 -0.030121875 -0.00125 -0.013584375 0.00284458163855
132 1 -0.030121875 -0.00125 -0.012403125 0.01386971523
133 1 -0.030121875 -0.00125 -0.011221875 4.52220221462e-06
134 1 -0.030121875 -0.00125 -0.010040625 1.74019667629e-11
135 1 -0.030121875 -0.00125 -0.008859375 1.74019667629e-11
136 1 -0.030121875 -0.00125 -0.007678125 0.0
137 1 -0.030121875 -0.00125 -0.006496875 3.14925560351e-13
138 1 -0.030121875 -0.00125 -0.005315625 0.000126657572948
139 1 -0.030121875 -0.00125 -0.004134375 0.01386971523
140 1 -0.030121875 -0.00125 -0.002953125 0.0175126135393
141 1 -0.030121875 -0.00125 -0.001771875 0.0107214510125
142 1 -0.030121875 -0.00125 -0.000590625 0.21693828514
143 1 -0.030121875 -0.00125 0.000590625 0.379197341893
144 1 -0.030121875 -0.00125 0.001771875 0.0827704306511
145 1 -0.030121875 -0.00125 0.002953125 1.22156214432e-15
146 1 -0.030121875 -0.00125 0.004134375 1.74019667629e-11
147 1 -0.030121875 -0.00125 0.005315625 6.01557630165e-07
148 1 -0.030121875 -0.00125 0.006496875 1.74019667629e-11
149 1 -0.030121875 -0.00125 0.007678125 6.01557630165e-07
150 1 -0.030121875 -0.00125 0.008859375 0.000126658700522
151 1 -0.030121875 -0.00125 0.010040625 0.000126658700522
152 1 -0.030121875 -0.00125 0.011221875 0.0
153 1 -0.030121875 -0.00125 0.012403125 0.0
154 1 -0.030121875 -0.00125 0.013584375 0.0
155 1 -0.030121875 -0.00125 0.014765625 0.0
156 1 -0.030121875 -0.00125 0.015946875 0.0
157 1 -0.030121875 -0.00125 0.017128125 0.0
158 1 -0.030121875 -0.00125 0.018309375 0.0
159 1 -0.030121875 -0.00125 0.019490625 0.0
160 1 -0.030121875 -0.00125 0.020671875 0.0
161 1 -0.028940625 -0.00125 -0.021853125 0.0459959987098
162 1 -0.028940625 -0.00125 -0.020671875 0.00713505279549
163 1 -0.028940625 -0.00125 -0.019490625 1.28754471296e-08
164 1 -0.028940625 -0.00125 -0.018309375 0.0
165 1 -0.028940625 -0.00125 -0.017128125 6.01557630165e-07
166 1 -0.028940625 -0.00125 -0.015946875 6.01557630165e-07
167 1 -0.028940625 -0.00125 -0.014765625 4.52220221462e-06
168 1 -0.028940625 -0.00125 -0.013584375 0.00734856622555
169 1 -0.028940625 -0.00125 -0.012403125 0.0199375166154
170 1 -0.028940625 -0.00125 -0.011221875 6.01557630165e-07
171 1 -0.028940625 -0.00125 -0.010040625 6.01557630165e-07
172 1 -0.028940625 -0.00125 -0.008859375 1.74019667629e-11
173 1 -0.028940625 -0.00125 -0.007678125 0.000299131636816
174 1 -0.028940625 -0.00125 -0.006496875 1.28752206004e-08
175 1 -0.028940625 -0.00125 -0.005315625 6.01557630165e-07
176 1 -0.028940625 -0.00125 -0.004134375 0.00154813293271
177 1 -0.028940625 -0.00125 -0.002953125 0.00322594350264
178 1 -0.028940625 -0.00125 -0.001771875 0.0293069007767
179 1 -0.028940625 -0.00125 -0.000590625 0.419449528188
180 1 -0.028940625 -0.00125 0.000590625 0.56936437413
181 1 -0.028940625 -0.00125 0.001771875 0.0138696939255
182 1 -0.028940625 -0.00125 0.002953125 0.000891023127979
183 1 -0.028940625 -0.00125 0.004134375 0.000126658700522
184 1 -0.028940625 -0.00125 0.005315625 0.00154813293271
185 1 -0.028940625 -0.00125 0.006496875 0.00284458672872
186 1 -0.028940625 -0.00125 0.007678125 0.00154813293271
187 1 -0.028940625 -0.00125 0.008859375 1.22156214432e-15
188 1 -0.028940625 -0.00125 0.010040625 0.0
189 1 -0.028940625 -0.00125 0.011221875 0.0
190 1 -0.028940625 -0.00125 0.012403125 0.0
191 1 -0.028940625 -0.00125 0.013584375 0.0
192 1 -0.028940625 -0.00125 0.014765625 0.0
193 1 -0.028940625 -0.00125 0.015946875 0.0
194 1 -0.028940625 -0.00125 0.017128125 0.0
195 1 -0.028940625 -0.00125 0.018309375 0.0
196 1 -0.028940625 -0.00125 0.019490625 0.0
197 1 -0.028940625 -0.00125 0.020671875 0.0
198 1 -0.028940625 -0.00125 0.021853125 0.0
199 1 -0.027759375 -0.00125 -0.024215625 0.41772472414
200 1 -0.027759375 -0.00125 -0.023034375 0.268886816989
201 1 -0.027759375 -0.00125 -0.021853125 0.659020192004
202 1 -0.027759375 -0.00125 -0.020671875 0.332327069371
203 1 -0.027759375 -0.00125 -0.019490625 1.58378774223e-05
204 1 -0.027759375 -0.00125 -0.018309375 1.74019667629e-11
205 1 -0.027759375 -0.00125 -0.017128125 1.74019667629e-11
206 1 -0.027759375 -0.00125 -0.015946875 4.42606186288e-05
207 1 -0.027759375 -0.00125 -0.014765625 0.0243767756543
208 1 -0.027759375 -0.00125 -0.013584375 0.0869646674983
209 1 -0.027759375 -0.00125 -0.012403125 0.010721438861
210 1 -0.027759375 -0.00125 -0.011221875 0.00474644221021
211 1 -0.027759375 -0.00125 -0.010040625 0.000891017573599
212 1 -0.027759375 -0.00125 -0.008859375 0.000299132858986
213 1 -0.027759375 -0.00125 -0.007678125 0.114532075754
214 1 -0.027759375 -0.00125 -0.006496875 0.0028445981816
215 1 -0.027759375 -0.00125 -0.005315625 0.00668184101894
216 1 -0.027759375 -0.00125 -0.004134375 0.186172066556
217 1 -0.027759375 -0.00125 -0.002953125 0.186171540908
218 1 -0.027759375 -0.00125 -0.001771875 0.224469737872
219 1 -0.027759375 -0.00125 -0.000590625 0.775530217004
220 1 -0.027759375 -0.00125 0.000590625 0.724224680087
221 1 -0.027759375 -0.00125 0.001771875 0.0443322841124
222 1 -0.027759375 -0.00125 0.002953125 0.00474645121499
223 1 -0.027759375 -0.00125 0.004134375 0.0138696939255
224 1 -0.027759375 -0.00125 0.005315625 0.0138696939255
225 1 -0.027759375 -0.00125 0.006496875 0.00284458672872
226 1 -0.027759375 -0.00125 0.007678125 0.00154813293271
227 1 -0.027759375 -0.00125 0.008859375 0.000126658700522
228 1 -0.027759375 -0.00125 0.010040625 1.22156214432e-15
229 1 -0.027759375 -0.00125 0.011221875 0.0
230 1 -0.027759375 -0.00125 0.012403125 0.0
231 1 -0.027759375 -0.00125 0.013584375 0.0
232 1 -0.027759375 -0.00125 0.014765625 0.0
233 1 -0.027759375 -0.00125 0.015946875 0.0
234 1 -0.027759375 -0.00125 0.017128125 0.0
235 1 -0.027759375 -0.00125 0.018309375 0.0
236 1 -0.027759375 -0.00125 0.019490625 0.0
237 1 -0.027759375 -0.00125 0.020671875 0.0
238 1 -0.027759375 -0.00125 0.021853125 0.0
239 1 -0.027759375 -0.00125 0.023034375 0.0
240 1 -0.027759375 -0.00125 0.024215625 0.0
241 1 -0.026578125 -0.00125 -0.026578125 0.056860843261
242 1 -0.026578125 -0.00125 -0.025396875 0.0600982007402
243 1 -0.026578125 -0.00125 -0.024215625 0.257159042858
244 1 -0.026578125 -0.00125 -0.023034375 0.5
245 1 -0.026578125 -0.00125 -0.021853125 0.61521468866
246 1 -0.026578125 -0.00125 -0.020671875 0.114531842656
247 1 -0.026578125 -0.00125 -0.019490625 1.77729209249e-06
248 1 -0.026578125 -0.00125 -0.018309375 0.0034987279089
249 1 -0.026578125 -0.00125 -0.017128125 0.0600765880282
250 1 -0.026578125 -0.00125 -0.015946875 0.210511756665
251 1 -0.026578125 -0.00125 -0.014765625 0.366908379458
252 1 -0.026578125 -0.00125 -0.013584375 0.254357306197
253 1 -0.026578125 -0.00125 -0.012403125 0.219086292165
254 1 -0.026578125 -0.00125 -0.011221875 0.224470008617
255 1 -0.026578125 -0.00125 -0.010040625 0.312303674233
256 1 -0.026578125 -0.00125 -0.008859375 0.545870714363
257 1 -0.026578125 -0.00125 -0.007678125 0.64983617228
258 1 -0.026578125 -0.00125 -0.006496875 0.44070424518
259 1 -0.026578125 -0.00125 -0.005315625 0.520138362897
260 1 -0.026578125 -0.00125 -0.004134375 0.238544505021
261 1 -0.026578125 -0.00125 -0.002953125 0.286812771634
262 1 -0.026578125 -0.00125 -0.001771875 0.770129521924
263 1 -0.026578125 -0.00125 -0.000590625 0.609625751849
264 1 -0.026578125 -0.00125 0.000590625 0.341241773452
265 1 -0.026578125 -0.00125 0.001771875 0.0207856853608
266 1 -0.026578125 -0.00125 0.002953125 0.0187026608024
267 1 -0.026578125 -0.00125 0.004134375 0.0138696939255
268 1 -0.026578125 -0.00125 0.005315625 0.0267810506
269 1 -0.026578125 -0.00125 0.006496875 0.0161809772646
270 1 -0.026578125 -0.00125 0.007678125 0.0660410552853
271 1 -0.026578125 -0.00125 0.008859375 0.0267810609157
272 1 -0.026578125 -0.00125 0.010040625 0.0187026608024
273 1 -0.026578125 -0.00125 0.011221875 0.0529662205791
274 1 -0.026578125 -0.00125 0.012403125 0.102664261579
275 1 -0.026578125 -0.00125 0.013584375 0.0187026354358
276 1 -0.026578125 -0.00125 0.014765625 1.40785443464e-30
277 1 -0.026578125 -0.00125 0.015946875 0.0
278 1 -0.026578125 -0.00125 0.017128125 0.0
279 1 -0.026578125 -0.00125 0.018309375 0.0
280 1 -0.026578125 -0.00125 0.019490625 0.0
281 1 -0.026578125 -0.00125 0.020671875 0.0
282 1 -0.026578125 -0.00125 0.021853125 0.0
283 1 -0.026578125 -0.00125 0.023034375 0.0
284 1 -0.026578125 -0.00125 0.024215625 0.0
285 1 -0.026578125 -0.00125 0.025396875 0.0
286 1 -0.026578125 -0.00125 0.026578125 0.0
287 1 -0.025396875 -0.00125 -0.026578125 0.509158288428
288 1 -0.025396875 -0.00125 -0.025396875 0.372492797347
289 1 -0.025396875 -0.00125 -0.024215625 0.511187741896
290 1 -0.025396875 -0.00125 -0.023034375 0.747283490098
291 1 -0.025396875 -0.00125 -0.021853125 0.834531294591
292 1 -0.025396875 -0.00125 -0.020671875 0.332326556717
293 1 -0.025396875 -0.00125 -0.019490625 0.258189948267
294 1 -0.025396875 -0.00125 -0.018309375 0.252716464147
295 1 -0.025396875 -0.00125 -0.017128125 0.372493358291
296 1 -0.025396875 -0.00125 -0.015946875 0.372493358291
297 1 -0.025396875 -0.00125 -0.014765625 0.327872944208
298 1 -0.025396875 -0.00125 -0.013584375 0.624154749833
299 1 -0.025396875 -0.00125 -0.012403125 0.707657282816
300 1 -0.025396875 -0.00125 -0.011221875 0.540276619563
301 1 -0.025396875 -0.00125 -0.010040625 0.27026908404
302 1 -0.025396875 -0.00125 -0.008859375 0.511187741896
303 1 -0.025396875 -0.00125 -0.007678125 0.609625938955
304 1 -0.025396875 -0.00125 -0.006496875 0.752744775036
305 1 -0.025396875 -0.00125 -0.005315625 0.718709275763
306 1 -0.025396875 -0.00125 -0.004134375 0.470910937833
307 1 -0.025396875 -0.00125 -0.002953125 0.591734291704
308 1 -0.025396875 -0.00125 -0.001771875 0.488811743157
309 1 -0.025396875 -0.00125 -0.000590625 0.186171540908
310 1 -0.025396875 -0.00125 0.000590625 0.11175699854
311 1 -0.025396875 -0.00125 0.001771875 0.0443322841124
312 1 -0.025396875 -0.00125 0.002953125 0.0243767756543
313 1 -0.025396875 -0.00125 0.004134375 0.0243767756543
314 1 -0.025396875 -0.00125 0.005315625 0.0698876476892
315 1 -0.025396875 -0.00125 0.006496875 0.456366823398
316 1 -0.025396875 -0.00125 0.007678125 0.252716464147
317 1 -0.025396875 -0.00125 0.008859375 0.186171540908
318 1 -0.025396875 -0.00125 0.010040625 0.186171540908
319 1 -0.025396875 -0.00125 0.011221875 0.186171540908
320 1 -0.025396875 -0.00125 0.012403125 0.17575893658
321 1 -0.025396875 -0.00125 0.013584375 0.0138697507376
322 1 -0.025396875 -0.00125 0.014765625 1.74019667629e-11
323 1 -0.025396875 -0.00125 0.015946875 1.22156214432e-15
324 1 -0.025396875 -0.00125 0.017128125 0.0
325 1 -0.025396875 -0.00125 0.018309375 0.0
326 1 -0.025396875 -0.00125 0.019490625 0.0
327 1 -0.025396875 -0.00125 0.020671875 0.0
328 1 -0.025396875 -0.00125 0.021853125 0.0
329 1 -0.025396875 -0.00125 0.023034375 0.0
330 1 -0.025396875 -0.00125 0.024215625 0.0
331 1 -0.025396875 -0.00125 0.025396875 0.0
332 1 -0.025396875 -0.00125 0.026578125 0.0
333 1 -0.024215625 -0.00125 -0.027759375 0.19657201457
334 1 -0.024215625 -0.00125 -0.026578125 0.427379030976
335 1 -0.024215625 -0.00125 -0.025396875 0.292342717184
336 1 -0.024215625 -0.00125 -0.024215625 0.123928325831
337 1 -0.024215625 -0.00125 -0.023034375 0.660987899129
338 1 -0.024215625 -0.00125 -0.021853125 0.834531209026
339 1 -0.024215625 -0.00125 -0.020671875 0.5
340 1 -0.024215625 -0.00125 -0.019490625 0.366908379458
341 1 -0.024215625 -0.00125 -0.018309375 0.0999860491522
342 1 -0.024215625 -0.00125 -0.017128125 0.0293069224194
343 1 -0.024215625 -0.00125 -0.015946875 0.218012162525
344 1 -0.024215625 -0.00125 -0.014765625 0.343471904739
345 1 -0.024215625 -0.00125 -0.013584375 0.531326638053
346 1 -0.024215625 -0.00125 -0.012403125 0.522376508072
347 1 -0.024215625 -0.00125 -0.011221875 0.361324541927
348 1 -0.024215625 -0.00125 -0.010040625 0.314525490432
349 1 -0.024215625 -0.00125 -0.008859375 0.321195978177
350 1 -0.024215625 -0.00125 -0.007678125 0.470910984646
351 1 -0.024215625 -0.00125 -0.006496875 0.53468285502
352 1 -0.024215625 -0.00125 -0.005315625 0.78627876631
353 1 -0.024215625 -0.00125 -0.004134375 0.890996326833
354 1 -0.024215625 -0.00125 -0.002953125 0.908766147452
355 1 -0.024215625 -0.00125 -0.001771875 0.252716464147
356 1 -0.024215625 -0.00125 -0.000590625 0.0293069007767
357 1 -0.024215625 -0.00125 0.000590625 0.0802910104399
358 1 -0.024215625 -0.00125 0.001771875 0.0443322841124
359 1 -0.024215625 -0.00125 0.002953125 0.0443322841124
360 1 -0.024215625 -0.00125 0.004134375 0.0443322841124
361 1 -0.024215625 -0.00125 0.005315625 0.203051971158
362 1 -0.024215625 -0.00125 0.006496875 0.10266435538
363 1 -0.024215625 -0.00125 0.007678125 4.52220221462e-06
364 1 -0.024215625 -0.00125 0.008859375 0.000126657572948
365 1 -0.024215625 -0.00125 0.010040625 4.52220221462e-06
366 1 -0.024215625 -0.00125 0.011221875 4.52220221462e-06
367 1 -0.024215625 -0.00125 0.012403125 0.000126657572948
368 1 -0.024215625 -0.00125 0.013584375 0.0
369 1 -0.024215625 -0.00125 0.014765625 0.0
370 1 -0.024215625 -0.00125 0.015946875 0.0
371 1 -0.024215625 -0.00125 0.017128125 1.74019667629e-11
372 1 -0.024215625 -0.00125 0.018309375 0.0
373 1 -0.024215625 -0.00125 0.019490625 0.0
374 1 -0.024215625 -0.00125 0.020671875 0.0
375 1 -0.024215625 -0.00125 0.021853125 0.0
376 1 -0.024215625 -0.00125 0.023034375 0.0
377 1 -0.024215625 -0.00125 0.024215625 0.0
378 1 -0.024215625 -0.00125 0.025396875 0.0
379 1 -0.024215625 -0.00125 0.026578125 1.19428386905e-12
380 1 -0.024215625 -0.00125 0.027759375 0.0
381 1 -0.023034375 -0.00125 -0.027759375 0.246912914704
382 1 -0.023034375 -0.00125 -0.026578125 0.31785993773
383 1 -0.023034375 -0.00125 -0.025396875 0.196692230435
384 1 -0.023034375 -0.00125 -0.024215625 0.224469737872
385 1 -0.023034375 -0.00125 -0.023034375 0.638675411355
386 1 -0.023034375 -0.00125 -0.021853125 0.747283032551
387 1 -0.023034375 -0.00125 -0.020671875 0.263675002831
388 1 -0.023034375 -0.00125 -0.019490625 0.0886635297694
389 1 -0.023034375 -0.00125 -0.018309375 0.000126657572948
390 1 -0.023034375 -0.00125 -0.017128125 0.01386971523
391 1 -0.023034375 -0.00125 -0.015946875 0.0443323240644
392 1 -0.023034375 -0.00125 -0.014765625 0.263674497482
393 1 -0.023034375 -0.00125 -0.013584375 0.580550190996
394 1 -0.023034375 -0.00125 -0.012403125 0.504475171733
395 1 -0.023034375 -0.00125 -0.011221875 0.361325055821
396 1 -0.023034375 -0.00125 -0.010040625 0.39037452881
397 1 -0.023034375 -0.00125 -0.008859375 0.441823107051
398 1 -0.023034375 -0.00125 -0.007678125 0.529089062167
399 1 -0.023034375 -0.00125 -0.006496875 0.800132071733
400 1 -0.023034375 -0.00125 -0.005315625 0.764712703962
401 1 -0.023034375 -0.00125 -0.004134375 0.718709829977
402 1 -0.023034375 -0.00125 -0.002953125 0.551464650233
403 1 -0.023034375 -0.00125 -0.001771875 0.0443322841124
404 1 -0.023034375 -0.00125 -0.000590625 0.0443322841124
405 1 -0.023034375 -0.00125 0.000590625 0.0844389648668
406 1 -0.023034375 -0.00125 0.001771875 0.0698876476892
407 1 -0.023034375 -0.00125 0.002953125 0.0293069007767
408 1 -0.023034375 -0.00125 0.004134375 0.186171540908
409 1 -0.023034375 -0.00125 0.005315625 0.401555093596
410 1 -0.023034375 -0.00125 0.006496875 0.346817124959
411 1 -0.023034375 -0.00125 0.007678125 0.39037452881
412 1 -0.023034375 -0.00125 0.008859375 0.372493358291
413 1 -0.023034375 -0.00125 0.010040625 0.488811743157
414 1 -0.023034375 -0.00125 0.011221875 0.372493358291
415 1 -0.023034375 -0.00125 0.012403125 0.224469737872
416 1 -0.023034375 -0.00125 0.013584375 0.107179852095
417 1 -0.023034375 -0.00125 0.014765625 1.74019667629e-11
418 1 -0.023034375 -0.00125 0.015946875 0.0
419 1 -0.023034375 -0.00125 0.017128125 1.74019667629e-11
420 1 -0.023034375 -0.00125 0.018309375 0.0
421 1 -0.023034375 -0.00125 0.019490625 1.74019667629e-11
422 1 -0.023034375 -0.00125 0.020671875 1.74019667629e-11
423 1 -0.023034375 -0.00125 0.021853125 0.0
424 1 -0.023034375 -0.00125 0.023034375 0.0
425 1 -0.023034375 -0.00125 0.024215625 0.0
426 1 -0.023034375 -0.00125 0.025396875 3.70458005324e-08
427 1 -0.023034375 -0.00125 0.026578125 0.0011868239541
428 1 -0.023034375 -0.00125 0.027759375 1.63558782507e-05
429 1 -0.021853125 -0.00125 -0.028940625 0.0225621152214
430 1 -0.021853125 -0.00125 -0.027759375 0.471766496054
431 1 -0.021853125 -0.00125 -0.026578125 0.395964423221
432 1 -0.021853125 -0.00125 -0.025396875 0.196692230435
433 1 -0.021853125 -0.00125 -0.024215625 0.321195978177
434 1 -0.021853125 -0.00125 -0.023034375 0.540277181315
435 1 -0.021853125 -0.00125 -0.021853125 0.890996709385
436 1 -0.021853125 -0.00125 -0.020671875 0.448535864695
437 1 -0.021853125 -0.00125 -0.019490625 0.243984912454
438 1 -0.021853125 -0.00125 -0.018309375 0.14929428164
439 1 -0.021853125 -0.00125 -0.017128125 0.270269130079
440 1 -0.021853125 -0.00125 -0.015946875 0.292342717184
441 1 -0.021853125 -0.00125 -0.014765625 0.506712476707
442 1 -0.021853125 -0.00125 -0.013584375 0.551464369363
443 1 -0.021853125 -0.00125 -0.012403125 0.274673763196
444 1 -0.021853125 -0.00125 -0.011221875 0.406029258304
445 1 -0.021853125 -0.00125 -0.010040625 0.252716464147
446 1 -0.021853125 -0.00125 -0.008859375 0.504475733493
447 1 -0.021853125 -0.00125 -0.007678125 0.638675411355
448 1 -0.021853125 -0.00125 -0.006496875 0.853694412884
449 1 -0.021853125 -0.00125 -0.005315625 0.834531209026
450 1 -0.021853125 -0.00125 -0.004134375 0.511187741896
451 1 -0.021853125 -0.00125 -0.002953125 0.159358746116
452 1 -0.021853125 -0.00125 -0.001771875 0.0138696939255
453 1 -0.021853125 -0.00125 -0.000590625 0.0293069007767
454 1 -0.021853125 -0.00125 0.000590625 0.107179814045
455 1 -0.021853125 -0.00125 0.001771875 0.091233852548
456 1 -0.021853125 -0.00125 0.002953125 0.186171540908
457 1 -0.021853125 -0.00125 0.004134375 0.649836732464
458 1 -0.021853125 -0.00125 0.005315625 0.78627876631
459 1 -0.021853125 -0.00125 0.006496875 0.346817358306
460 1 -0.021853125 -0.00125 0.007678125 0.186171540908
461 1 -0.021853125 -0.00125 0.008859375 0.186171540908
462 1 -0.021853125 -0.00125 0.010040625 0.186171540908
463 1 -0.021853125 -0.00125 0.011221875 0.224469737872
464 1 -0.021853125 -0.00125 0.012403125 0.263674497482
465 1 -0.021853125 -0.00125 0.013584375 0.525732740375
466 1 -0.021853125 -0.00125 0.014765625 0.0698876802493
467 1 -0.021853125 -0.00125 0.015946875 0.000126658700522
468 1 -0.021853125 -0.00125 0.017128125 0.0
469 1 -0.021853125 -0.00125 0.018309375 1.74019667629e-11
470 1 -0.021853125 -0.00125 0.019490625 1.74019667629e-11
471 1 -0.021853125 -0.00125 0.020671875 1.74019667629e-11
472 1 -0.021853125 -0.00125 0.021853125 1.74019667629e-11
473 1 -0.021853125 -0.00125 0.023034375 0.0
474 1 -0.021853125 -0.00125 0.024215625 0.0
475 1 -0.021853125 -0.00125 0.025396875 1.22156214432e-15
476 1 -0.021853125 -0.00125 0.026578125 0.10266431786
477 1 -0.021853125 -0.00125 0.027759375 0.0
478 1 -0.021853125 -0.00125 0.028940625 0.000167490860231
479 1 -0.020671875 -0.00125 -0.030121875 0.0
480 1 -0.020671875 -0.00125 -0.028940625 1.61610918776e-06
481 1 -0.020671875 -0.00125 -0.027759375 0.186171540908
482 1 -0.020671875 -0.00125 -0.026578125 0.482099221396
483 1 -0.020671875 -0.00125 -0.025396875 0.0999860491522
484 1 -0.020671875 -0.00125 -0.024215625 0.0827704306511
485 1 -0.020671875 -0.00125 -0.023034375 0.332327069371
486 1 -0.020671875 -0.00125 -0.021853125 0.758193091305
487 1 -0.020671875 -0.00125 -0.020671875 0.982487321321
488 1 -0.020671875 -0.00125 -0.019490625 0.758193091305
489 1 -0.020671875 -0.00125 -0.018309375 0.792690361691
490 1 -0.020671875 -0.00125 -0.017128125 0.95940822244
491 1 -0.020671875 -0.00125 -0.015946875 0.955667729205
492 1 -0.020671875 -0.00125 -0.014765625 0.897335738421
493 1 -0.020671875 -0.00125 -0.013584375 0.580550190996
494 1 -0.020671875 -0.00125 -0.012403125 0.540276713188
495 1 -0.020671875 -0.00125 -0.011221875 0.441823153862
496 1 -0.020671875 -0.00125 -0.010040625 0.488812258104
497 1 -0.020671875 -0.00125 -0.008859375 0.529089062167
498 1 -0.020671875 -0.00125 -0.007678125 0.908766147452
499 1 -0.020671875 -0.00125 -0.006496875 0.863545048631
500 1 -0.020671875 -0.00125 -0.005315625 0.649836732464
501 1 -0.020671875 -0.00125 -0.004134375 0.350163267536
502 1 -0.020671875 -0.00125 -0.002953125 0.0698876476892
503 1 -0.020671875 -0.00125 -0.001771875 0.0443322841124
504 1 -0.020671875 -0.00125 -0.000590625 0.0293069007767
505 1 -0.020671875 -0.00125 0.000590625 0.141358367253
506 1 -0.020671875 -0.00125 0.001771875 0.5
507 1 -0.020671875 -0.00125 0.002953125 0.627506641709
508 1 -0.020671875 -0.00125 0.004134375 0.224469737872
509 1 -0.020671875 -0.00125 0.005315625 0.0622852495443
510 1 -0.020671875 -0.00125 0.006496875 0.0122342732579
511 1 -0.020671875 -0.00125 0.007678125 4.52227625942e-06
512 1 -0.020671875 -0.00125 0.008859375 4.52220221462e-06
513 1 -0.020671875 -0.00125 0.010040625 4.52220221462e-06
514 1 -0.020671875 -0.00125 0.011221875 0.00668182974929
515 1 -0.020671875 -0.00125 0.012403125 0.00474644221021
516 1 -0.020671875 -0.00125 0.013584375 0.0762230570617
517 1 -0.020671875 -0.00125 0.014765625 0.558176892949
518 1 -0.020671875 -0.00125 0.015946875 0.252716464147
519 1 -0.020671875 -0.00125 0.017128125 6.01557630165e-07
520 1 -0.020671875 -0.00125 0.018309375 0.0
521 1 -0.020671875 -0.00125 0.019490625 2.79378975481e-22
522 1 -0.020671875 -0.00125 0.020671875 4.52220221462e-06
523 1 -0.020671875 -0.00125 0.021853125 1.74019667629e-11
524 1 -0.020671875 -0.00125 0.023034375 1.74019667629e-11
525 1 -0.020671875 -0.00125 0.024215625 0.0
526 1 -0.020671875 -0.00125 0.025396875 0.0
527 1 -0.020671875 -0.00125 0.026578125 0.0762228548539
528 1 -0.020671875 -0.00125 0.027759375 0.0107214510125
529 1 -0.020671875 -0.00125 0.028940625 0.0
530 1 -0.020671875 -0.00125 0.030121875 0.0
531 1 -0.019490625 -0.00125 -0.031303125 0.000357077268718
532 1 -0.019490625 -0.00125 -0.030121875 0.00167036539102
533 1 -0.019490625 -0.00125 -0.028940625 0.0529663073376
534 1 -0.019490625 -0.00125 -0.027759375 0.326759914968
535 1 -0.019490625 -0.00125 -0.026578125 0.557058306631
536 1 -0.019490625 -0.00125 -0.025396875 0.254904671976
537 1 -0.019490625 -0.00125 -0.024215625 0.283498095333
538 1 -0.019490625 -0.00125 -0.023034375 0.297879916303
539 1 -0.019490625 -0.00125 -0.021853125 0.675466246388
540 1 -0.019490625 -0.00125 -0.020671875 0.986799204489
541 1 -0.019490625 -0.00125 -0.019490625 0.999994160749
542 1 -0.019490625 -0.00125 -0.018309375 0.998451852137
543 1 -0.019490625 -0.00125 -0.017128125 0.982487321321
544 1 -0.019490625 -0.00125 -0.015946875 0.999944365602
545 1 -0.019490625 -0.00125 -0.014765625 0.998773419576
546 1 -0.019490625 -0.00125 -0.013584375 0.980685503333
547 1 -0.019490625 -0.00125 -0.012403125 0.73852027188
548 1 -0.019490625 -0.00125 -0.011221875 0.791623660335
549 1 -0.019490625 -0.00125 -0.010040625 0.913035332502
550 1 -0.019490625 -0.00125 -0.008859375 0.966402732949
551 1 -0.019490625 -0.00125 -0.007678125 0.939923167434
552 1 -0.019490625 -0.00125 -0.006496875 0.817485840471
553 1 -0.019490625 -0.00125 -0.005315625 0.357975472462