ITEM: TIMESTEP
0
ITEM: NUMBER OF ATOMS
3080
ITEM: BOX BOUNDS ss ss ss
-3.7007399999999996e-02 3.7007399999999996e-02
-2.0002499999999999e-03 2.5000000000000004e-07
-3.7007399999999996e-02 3.7007399999999996e-02
ITEM: ATOMS id type x y z c_1
0 1 -0.037209375 -0.00125 -0.000590625 1.0
1 1 -0.036028125 -0.00125 -0.007678125 0.00920066229086
2 1 -0.036028125 -0.00125 -0.006496875 1.22148603069e-15
3 1 -0.036028125 -0.00125 -0.005315625 0.0
4 1 -0.036028125 -0.00125 -0.004134375 0.0
5 1 -0.036028125 -0.00125 -0.002953125 4.42606186288e-05
6 1 -0.036028125 -0.00125 -0.001771875 0.226627684957
7 1 -0.036028125 -0.00125 -0.000590625 0.232375684815
8 1 -0.036028125 -0.00125 0.000590625 0.0155974655734
9 1 -0.036028125 -0.00125 0.001771875 0.226627684957
10 1 -0.036028125 -0.00125 0.002953125 0.00021629040297
11 1 -0.036028125 -0.00125 0.004134375 3.70458005324e-08
12 1 -0.036028125 -0.00125 0.005315625 0.0
13 1 -0.036028125 -0.00125 0.006496875 0.0
14 1 -0.036028125 -0.00125 0.007678125 0.0
15 1 -0.034846875 -0.00125 -0.011221875 0.00920066229086
16 1 -0.034846875 -0.00125 -0.010040625 0.120143392669
17 1 -0.034846875 -0.00125 -0.008859375 0.432681879228
18 1 -0.034846875 -0.00125 -0.007678125 0.057607006066
19 1 -0.034846875 -0.00125 -0.006496875 2.79378975481e-22
20 1 -0.034846875 -0.00125 -0.005315625 0.0
21 1 -0.034846875 -0.00125 -0.004134375 0.0
22 1 -0.034846875 -0.00125 -0.002953125 0.010721438861
23 1 -0.034846875 -0.00125 -0.001771875 0.091233852548
24 1 -0.034846875 -0.00125 -0.000590625 0.252716464147
25 1 -0.034846875 -0.00125 0.000590625 0.0267810196531
26 1 -0.034846875 -0.00125 0.001771875 0.00154813293271
27 1 -0.034846875 -0.00125 0.002953125 0.000299132858986
28 1 -0.034846875 -0.00125 0.004134375 1.74019667629e-11
29 1 -0.034846875 -0.00125 0.005315625 1.74019667629e-11
30 1 -0.034846875 -0.00125 0.006496875 0.0
31 1 -0.034846875 -0.00125 0.007678125 0.0
32 1 -0.034846875 -0.00125 0.008859375 0.0
33 1 -0.034846875 -0.00125 0.010040625 0.0
34 1 -0.034846875 -0.00125 0.011221875 0.00920066229086
35 1 -0.033665625 -0.00125 -0.013584375 0.0
36 1 -0.033665625 -0.00125 -0.012403125 0.0180058544457
37 1 -0.033665625 -0.00125 -0.011221875 0.00713501987779
38 1 -0.033665625 -0.00125 -0.010040625 0.0381872649833
39 1 -0.033665625 -0.00125 -0.008859375 0.441823153862
40 1 -0.033665625 -0.00125 -0.007678125 0.01386971523
41 1 -0.033665625 -0.00125 -0.006496875 0.0
42 1 -0.033665625 -0.00125 -0.005315625 0.0
43 1 -0.033665625 -0.00125 -0.004134375 0.0
44 1 -0.033665625 -0.00125 -0.002953125 1.74019667629e-11
45 1 -0.033665625 -0.00125 -0.001771875 0.000126657572948
46 1 -0.033665625 -0.00125 -0.000590625 0.189842124402
47 1 -0.033665625 -0.00125 0.000590625 0.0905460868479
48 1 -0.033665625 -0.00125 0.001771875 0.00154813293271
49 1 -0.033665625 -0.00125 0.002953125 0.000126657572948
50 1 -0.033665625 -0.00125 0.004134375 4.52220221462e-06
51 1 -0.033665625 -0.00125 0.005315625 1.74019667629e-11
52 1 -0.033665625 -0.00125 0.006496875 0.0
53 1 -0.033665625 -0.00125 0.007678125 0.0
54 1 -0.033665625 -0.00125 0.008859375 0.0
55 1 -0.033665625 -0.00125 0.010040625 0.0
56 1 -0.033665625 -0.00125 0.011221875 0.112788508618
57 1 -0.033665625 -0.00125 0.012403125 0.232375684815
58 1 -0.033665625 -0.00125 0.013584375 3.21135970775e-07
59 1 -0.032484375 -0.00125 -0.018309375 0.0
60 1 -0.032484375 -0.00125 -0.017128125 0.0753047253833
61 1 -0.032484375 -0.00125 -0.015946875 0.0565297446453
62 1 -0.032484375 -0.00125 -0.014765625 0.00337606889603
63 1 -0.032484375 -0.00125 -0.013584375 0.0
64 1 -0.032484375 -0.00125 -0.012403125 3.07877004318e-05
65 1 -0.032484375 -0.00125 -0.011221875 4.52220221462e-06
66 1 -0.032484375 -0.00125 -0.010040625 3.14925560351e-13
67 1 -0.032484375 -0.00125 -0.008859375 0.199867928267
68 1 -0.032484375 -0.00125 -0.007678125 0.258189948267
69 1 -0.032484375 -0.00125 -0.006496875 9.25291560019e-26
70 1 -0.032484375 -0.00125 -0.005315625 0.0
71 1 -0.032484375 -0.00125 -0.004134375 0.0
72 1 -0.032484375 -0.00125 -0.002953125 7.02293809892e-08
73 1 -0.032484375 -0.00125 -0.001771875 7.02293809892e-08
74 1 -0.032484375 -0.00125 -0.000590625 0.0794708889307
75 1 -0.032484375 -0.00125 0.000590625 0.135479759506
76 1 -0.032484375 -0.00125 0.001771875 0.000891027571502
77 1 -0.032484375 -0.00125 0.002953125 1.28754471296e-08
78 1 -0.032484375 -0.00125 0.004134375 1.74019667629e-11
79 1 -0.032484375 -0.00125 0.005315625 0.0
80 1 -0.032484375 -0.00125 0.006496875 0.0
81 1 -0.032484375 -0.00125 0.007678125 2.79378975481e-22
82 1 -0.032484375 -0.00125 0.008859375 2.79378975481e-22
83 1 -0.032484375 -0.00125 0.010040625 2.79378975481e-22
84 1 -0.032484375 -0.00125 0.011221875 0.107179814045
85 1 -0.032484375 -0.00125 0.012403125 0.186171540908
86 1 -0.032484375 -0.00125 0.013584375 1.48545584418e-16
87 1 -0.032484375 -0.00125 0.014765625 2.66892347814e-17
88 1 -0.032484375 -0.00125 0.015946875 0.0
89 1 -0.032484375 -0.00125 0.017128125 0.0
90 1 -0.032484375 -0.00125 0.018309375 0.0
91 1 -0.031303125 -0.00125 -0.019490625 0.0
92 1 -0.031303125 -0.00125 -0.018309375 0.0
93 1 -0.031303125 -0.00125 -0.017128125 4.52220221462e-06
94 1 -0.031303125 -0.00125 -0.015946875 0.0175125891118
95 1 -0.031303125 -0.00125 -0.014765625 1.22156214432e-15
96 1 -0.031303125 -0.00125 -0.013584375 0.0
97 1 -0.031303125 -0.00125 -0.012403125 4.52220221462e-06
98 1 -0.031303125 -0.00125 -0.011221875 4.52220221462e-06
99 1 -0.031303125 -0.00125 -0.010040625 0.0
100 1 -0.031303125 -0.00125 -0.008859375 0.091233852548
101 1 -0.031303125 -0.00125 -0.007678125 0.310081568404
102 1 -0.031303125 -0.00125 -0.006496875 1.58378774223e-05
103 1 -0.031303125 -0.00125 -0.005315625 0.0
104 1 -0.031303125 -0.00125 -0.004134375 1.74019667629e-11
105 1 -0.031303125 -0.00125 -0.002953125 0.000299131636816
106 1 -0.031303125 -0.00125 -0.001771875 0.00249557400626
107 1 -0.031303125 -0.00125 -0.000590625 0.00566000214566
108 1 -0.031303125 -0.00125 0.000590625 0.091233852548
109 1 -0.031303125 -0.00125 0.001771875 0.0698876476892
110 1 -0.031303125 -0.00125 0.002953125 0.00474644221021
111 1 -0.031303125 -0.00125 0.004134375 1.74019667629e-11
112 1 -0.031303125 -0.00125 0.005315625 0.0
113 1 -0.031303125 -0.00125 0.006496875 0.0
114 1 -0.031303125 -0.00125 0.007678125 0.0
115 1 -0.031303125 -0.00125 0.008859375 4.52220221462e-06
116 1 -0.031303125 -0.00125 0.010040625 0.0138696939255
117 1 -0.031303125 -0.00125 0.011221875 0.224469737872
118 1 -0.031303125 -0.00125 0.012403125 0.133535038668
119 1 -0.031303125 -0.00125 0.013584375 0.0
120 1 -0.031303125 -0.00125 0.014765625 0.0
121 1 -0.031303125 -0.00125 0.015946875 0.0
122 1 -0.031303125 -0.00125 0.017128125 0.0
123 1 -0.031303125 -0.00125 0.018309375 0.0
124 1 -0.031303125 -0.00125 0.019490625 0.0
125 1 -0.030121875 -0.00125 -0.020671875 0.0
126 1 -0.030121875 -0.00125 -0.019490625 0.0
127 1 -0.030121875 -0.00125 -0.018309375 0.0
128 1 -0.030121875 -0.00125 -0.017128125 1.74019667629e-11
129 1 -0.030121875 -0.00125 -0.015946875 0.0
130 1 -0.030121875 -0.00125 -0.014765625 0.0
131 1 -0.030121875 -0.00125 -0.013584375 0.0
132 1 -0.030121875 -0.00125 -0.012403125 1.74019667629e-11
133 1 -0.030121875 -0.00125 -0.011221875 0.0
134 1 -0.030121875 -0.00125 -0.010040625 0.0
135 1 -0.030121875 -0.00125 -0.008859375 0.0698876476892
136 1 -0.030121875 -0.00125 -0.007678125 0.230952152116
137 1 -0.030121875 -0.00125 -0.006496875 0.0267810196531
138 1 -0.030121875 -0.00125 -0.005315625 0.0
139 1 -0.030121875 -0.00125 -0.004134375 0.0
140 1 -0.030121875 -0.00125 -0.002953125 1.74019667629e-11
141 1 -0.030121875 -0.00125 -0.001771875 1.74019667629e-11
142 1 -0.030121875 -0.00125 -0.000590625 2.79378975481e-22
143 1 -0.030121875 -0.00125 0.000590625 0.00474644221021
144 1 -0.030121875 -0.00125 0.001771875 0.01386971523
145 1 -0.030121875 -0.00125 0.002953125 0.00154812961495
146 1 -0.030121875 -0.00125 0.004134375 4.52220221462e-06
147 1 -0.030121875 -0.00125 0.005315625 0.0
148 1 -0.030121875 -0.00125 0.006496875 1.28754471296e-08
149 1 -0.030121875 -0.00125 0.007678125 1.74019667629e-11
150 1 -0.030121875 -0.00125 0.008859375 0.000891017573599
151 1 -0.030121875 -0.00125 0.010040625 0.0999860863438
152 1 -0.030121875 -0.00125 0.011221875 0.419449528188
153 1 -0.030121875 -0.00125 0.012403125 0.186171540908
154 1 -0.030121875 -0.00125 0.013584375 2.79378975481e-22
155 1 -0.030121875 -0.00125 0.014765625 0.0
156 1 -0.030121875 -0.00125 0.015946875 0.0
157 1 -0.030121875 -0.00125 0.017128125 0.0
158 1 -0.030121875 -0.00125 0.018309375 0.0
159 1 -0.030121875 -0.00125 0.019490625 0.0
160 1 -0.030121875 -0.00125 0.020671875 0.0
161 1 -0.028940625 -0.00125 -0.021853125 0.298081407311
162 1 -0.028940625 -0.00125 -0.020671875 0.000245540111831
163 1 -0.028940625 -0.00125 -0.019490625 0.0
164 1 -0.028940625 -0.00125 -0.018309375 0.0
165 1 -0.028940625 -0.00125 -0.017128125 0.0
166 1 -0.028940625 -0.00125 -0.015946875 0.0
167 1 -0.028940625 -0.00125 -0.014765625 0.0
168 1 -0.028940625 -0.00125 -0.013584375 0.0
169 1 -0.028940625 -0.00125 -0.012403125 0.0
170 1 -0.028940625 -0.00125 -0.011221875 0.0
171 1 -0.028940625 -0.00125 -0.010040625 0.0
172 1 -0.028940625 -0.00125 -0.008859375 0.000891017573599
173 1 -0.028940625 -0.00125 -0.007678125 0.091233852548
174 1 -0.028940625 -0.00125 -0.006496875 0.0267810093374
175 1 -0.028940625 -0.00125 -0.005315625 0.0
176 1 -0.028940625 -0.00125 -0.004134375 0.0
177 1 -0.028940625 -0.00125 -0.002953125 0.0
178 1 -0.028940625 -0.00125 -0.001771875 0.0
179 1 -0.028940625 -0.00125 -0.000590625 2.79378975481e-22
180 1 -0.028940625 -0.00125 0.000590625 4.52220221462e-06
181 1 -0.028940625 -0.00125 0.001771875 0.0
182 1 -0.028940625 -0.00125 0.002953125 0.0
183 1 -0.028940625 -0.00125 0.004134375 0.0
184 1 -0.028940625 -0.00125 0.005315625 1.74019667629e-11
185 1 -0.028940625 -0.00125 0.006496875 0.00037578590857
186 1 -0.028940625 -0.00125 0.007678125 0.00154813293271
187 1 -0.028940625 -0.00125 0.008859375 0.0293069224194
188 1 -0.028940625 -0.00125 0.010040625 0.0912339065983
189 1 -0.028940625 -0.00125 0.011221875 0.332326556717
190 1 -0.028940625 -0.00125 0.012403125 0.252716464147
191 1 -0.028940625 -0.00125 0.013584375 1.74019667629e-11
192 1 -0.028940625 -0.00125 0.014765625 0.0
193 1 -0.028940625 -0.00125 0.015946875 0.0
194 1 -0.028940625 -0.00125 0.017128125 0.0
195 1 -0.028940625 -0.00125 0.018309375 0.0
196 1 -0.028940625 -0.00125 0.019490625 0.0
197 1 -0.028940625 -0.00125 0.020671875 0.0
198 1 -0.028940625 -0.00125 0.021853125 0.0
199 1 -0.027759375 -0.00125 -0.024215625 0.00920066229086
200 1 -0.027759375 -0.00125 -0.023034375 0.00106278235535
201 1 -0.027759375 -0.00125 -0.021853125 0.36658041478
202 1 -0.027759375 -0.00125 -0.020671875 0.091233852548
203 1 -0.027759375 -0.00125 -0.019490625 0.0
204 1 -0.027759375 -0.00125 -0.018309375 0.0
205 1 -0.027759375 -0.00125 -0.017128125 0.0
206 1 -0.027759375 -0.00125 -0.015946875 0.0
207 1 -0.027759375 -0.00125 -0.014765625 0.0
208 1 -0.027759375 -0.00125 -0.013584375 0.0
209 1 -0.027759375 -0.00125 -0.012403125 4.52220221462e-06
210 1 -0.027759375 -0.00125 -0.011221875 1.74019667629e-11
211 1 -0.027759375 -0.00125 -0.010040625 4.42606186288e-05
212 1 -0.027759375 -0.00125 -0.008859375 0.000891017573599
213 1 -0.027759375 -0.00125 -0.007678125 0.0912339065983
214 1 -0.027759375 -0.00125 -0.006496875 0.00228020850123
215 1 -0.027759375 -0.00125 -0.005315625 0.0
216 1 -0.027759375 -0.00125 -0.004134375 1.22156214432e-15
217 1 -0.027759375 -0.00125 -0.002953125 4.42606186288e-05
218 1 -0.027759375 -0.00125 -0.001771875 0.000126658700522
219 1 -0.027759375 -0.00125 -0.000590625 3.14925560351e-13
220 1 -0.027759375 -0.00125 0.000590625 1.74019667629e-11
221 1 -0.027759375 -0.00125 0.001771875 0.0
222 1 -0.027759375 -0.00125 0.002953125 0.0
223 1 -0.027759375 -0.00125 0.004134375 0.0
224 1 -0.027759375 -0.00125 0.005315625 0.0
225 1 -0.027759375 -0.00125 0.006496875 3.14925560351e-13
226 1 -0.027759375 -0.00125 0.007678125 0.00154813293271
227 1 -0.027759375 -0.00125 0.008859375 0.0509111013046
228 1 -0.027759375 -0.00125 0.010040625 0.263674497482
229 1 -0.027759375 -0.00125 0.011221875 0.529089062167
230 1 -0.027759375 -0.00125 0.012403125 0.123928325831
231 1 -0.027759375 -0.00125 0.013584375 1.77731074088e-06
232 1 -0.027759375 -0.00125 0.014765625 0.0
233 1 -0.027759375 -0.00125 0.015946875 0.0
234 1 -0.027759375 -0.00125 0.017128125 0.0
235 1 -0.027759375 -0.00125 0.018309375 0.0
236 1 -0.027759375 -0.00125 0.019490625 0.0
237 1 -0.027759375 -0.00125 0.020671875 0.0
238 1 -0.027759375 -0.00125 0.021853125 0.0
239 1 -0.027759375 -0.00125 0.023034375 0.0
240 1 -0.027759375 -0.00125 0.024215625 0.0
241 1 -0.026578125 -0.00125 -0.026578125 0.0
242 1 -0.026578125 -0.00125 -0.025396875 1.53365800589e-05
243 1 -0.026578125 -0.00125 -0.024215625 2.79378975481e-22
244 1 -0.026578125 -0.00125 -0.023034375 1.22148603069e-15
245 1 -0.026578125 -0.00125 -0.021853125 0.175759153192
246 1 -0.026578125 -0.00125 -0.020671875 0.131597898254
247 1 -0.026578125 -0.00125 -0.019490625 1.92522499223e-60
248 1 -0.026578125 -0.00125 -0.018309375 0.0
249 1 -0.026578125 -0.00125 -0.017128125 0.0
250 1 -0.026578125 -0.00125 -0.015946875 0.0
251 1 -0.026578125 -0.00125 -0.014765625 0.0
252 1 -0.026578125 -0.00125 -0.013584375 2.79360826313e-22
253 1 -0.026578125 -0.00125 -0.012403125 0.000299131636816
254 1 -0.026578125 -0.00125 -0.011221875 0.0138696939255
255 1 -0.026578125 -0.00125 -0.010040625 0.0683382082321
256 1 -0.026578125 -0.00125 -0.008859375 0.136454951369
257 1 -0.026578125 -0.00125 -0.007678125 0.17575893658
258 1 -0.026578125 -0.00125 -0.006496875 0.145312715691
259 1 -0.026578125 -0.00125 -0.005315625 0.154307310461
260 1 -0.026578125 -0.00125 -0.004134375 0.136454910525
261 1 -0.026578125 -0.00125 -0.002953125 0.252716738676
262 1 -0.026578125 -0.00125 -0.001771875 0.134506394838
263 1 -0.026578125 -0.00125 -0.000590625 0.0794709403021
264 1 -0.026578125 -0.00125 0.000590625 0.076223040211
265 1 -0.026578125 -0.00125 0.001771875 0.0335972902817
266 1 -0.026578125 -0.00125 0.002953125 0.0267810506
267 1 -0.026578125 -0.00125 0.004134375 1.77729209249e-06
268 1 -0.026578125 -0.00125 0.005315625 1.74019667629e-11
269 1 -0.026578125 -0.00125 0.006496875 1.74019667629e-11
270 1 -0.026578125 -0.00125 0.007678125 1.74019667629e-11
271 1 -0.026578125 -0.00125 0.008859375 0.0335972902817
272 1 -0.026578125 -0.00125 0.010040625 0.479861590289
273 1 -0.026578125 -0.00125 0.011221875 0.297879916303
274 1 -0.026578125 -0.00125 0.012403125 0.00118682874801
275 1 -0.026578125 -0.00125 0.013584375 0.0
276 1 -0.026578125 -0.00125 0.014765625 0.0
277 1 -0.026578125 -0.00125 0.015946875 0.0
278 1 -0.026578125 -0.00125 0.017128125 0.0
279 1 -0.026578125 -0.00125 0.018309375 0.0
280 1 -0.026578125 -0.00125 0.019490625 0.0
281 1 -0.026578125 -0.00125 0.020671875 0.0
282 1 -0.026578125 -0.00125 0.021853125 0.0
283 1 -0.026578125 -0.00125 0.023034375 0.0
284 1 -0.026578125 -0.00125 0.024215625 0.0
285 1 -0.026578125 -0.00125 0.025396875 0.0
286 1 -0.026578125 -0.00125 0.026578125 0.0
287 1 -0.025396875 -0.00125 -0.026578125 0.0
288 1 -0.025396875 -0.00125 -0.025396875 0.00154813293271
289 1 -0.025396875 -0.00125 -0.024215625 0.000891023127979
290 1 -0.025396875 -0.00125 -0.023034375 6.01557630165e-07
291 1 -0.025396875 -0.00125 -0.021853125 0.186171540908
292 1 -0.025396875 -0.00125 -0.020671875 0.14929428164
293 1 -0.025396875 -0.00125 -0.019490625 0.0
294 1 -0.025396875 -0.00125 -0.018309375 1.74019667629e-11
295 1 -0.025396875 -0.00125 -0.017128125 0.0
296 1 -0.025396875 -0.00125 -0.015946875 0.0
297 1 -0.025396875 -0.00125 -0.014765625 0.0
298 1 -0.025396875 -0.00125 -0.013584375 0.0
299 1 -0.025396875 -0.00125 -0.012403125 0.0
300 1 -0.025396875 -0.00125 -0.011221875 1.74019667629e-11
301 1 -0.025396875 -0.00125 -0.010040625 4.52220221462e-06
302 1 -0.025396875 -0.00125 -0.008859375 0.000126657572948
303 1 -0.025396875 -0.00125 -0.007678125 4.52227625942e-06
304 1 -0.025396875 -0.00125 -0.006496875 2.79378975481e-22
305 1 -0.025396875 -0.00125 -0.005315625 0.0
306 1 -0.025396875 -0.00125 -0.004134375 1.74019667629e-11
307 1 -0.025396875 -0.00125 -0.002953125 0.0622852495443
308 1 -0.025396875 -0.00125 -0.001771875 0.0509111013046
309 1 -0.025396875 -0.00125 -0.000590625 5.56345936508e-05
310 1 -0.025396875 -0.00125 0.000590625 0.01386971523
311 1 -0.025396875 -0.00125 0.001771875 0.123928325831
312 1 -0.025396875 -0.00125 0.002953125 0.224470234239
313 1 -0.025396875 -0.00125 0.004134375 0.149294323427
314 1 -0.025396875 -0.00125 0.005315625 0.0622852805866
315 1 -0.025396875 -0.00125 0.006496875 0.0622852495443
316 1 -0.025396875 -0.00125 0.007678125 4.52220221462e-06
317 1 -0.025396875 -0.00125 0.008859375 0.14929428164
318 1 -0.025396875 -0.00125 0.010040625 0.885467904821
319 1 -0.025396875 -0.00125 0.011221875 0.14929428164
320 1 -0.025396875 -0.00125 0.012403125 6.01557630165e-07
321 1 -0.025396875 -0.00125 0.013584375 0.0
322 1 -0.025396875 -0.00125 0.014765625 1.74019667629e-11
323 1 -0.025396875 -0.00125 0.015946875 0.0
324 1 -0.025396875 -0.00125 0.017128125 0.0
325 1 -0.025396875 -0.00125 0.018309375 1.74019667629e-11
326 1 -0.025396875 -0.00125 0.019490625 1.28754471296e-08
327 1 -0.025396875 -0.00125 0.020671875 0.0
328 1 -0.025396875 -0.00125 0.021853125 0.0
329 1 -0.025396875 -0.00125 0.023034375 0.0
330 1 -0.025396875 -0.00125 0.024215625 0.0
331 1 -0.025396875 -0.00125 0.025396875 0.0
332 1 -0.025396875 -0.00125 0.026578125 0.0
333 1 -0.024215625 -0.00125 -0.027759375 0.0
334 1 -0.024215625 -0.00125 -0.026578125 1.28754471296e-08
335 1 -0.024215625 -0.00125 -0.025396875 0.00474645121499
336 1 -0.024215625 -0.00125 -0.024215625 0.00154813293271
337 1 -0.024215625 -0.00125 -0.023034375 6.01557630165e-07
338 1 -0.024215625 -0.00125 -0.021853125 0.14929428164
339 1 -0.024215625 -0.00125 -0.020671875 0.252716464147
340 1 -0.024215625 -0.00125 -0.019490625 2.79378975481e-22
341 1 -0.024215625 -0.00125 -0.018309375 1.74019667629e-11
342 1 -0.024215625 -0.00125 -0.017128125 4.52220221462e-06
343 1 -0.024215625 -0.00125 -0.015946875 0.0
344 1 -0.024215625 -0.00125 -0.014765625 0.0
345 1 -0.024215625 -0.00125 -0.013584375 0.0
346 1 -0.024215625 -0.00125 -0.012403125 0.0
347 1 -0.024215625 -0.00125 -0.011221875 0.0
348 1 -0.024215625 -0.00125 -0.010040625 0.0
349 1 -0.024215625 -0.00125 -0.008859375 1.74019667629e-11
350 1 -0.024215625 -0.00125 -0.007678125 0.00154813293271
351 1 -0.024215625 -0.00125 -0.006496875 0.0098718633607
352 1 -0.024215625 -0.00125 -0.005315625 1.74019667629e-11
353 1 -0.024215625 -0.00125 -0.004134375 4.52220221462e-06
354 1 -0.024215625 -0.00125 -0.002953125 0.0199375166154
355 1 -0.024215625 -0.00125 -0.001771875 0.0243767756543
356 1 -0.024215625 -0.00125 -0.000590625 1.58379826604e-05
357 1 -0.024215625 -0.00125 0.000590625 0.0138696939255
358 1 -0.024215625 -0.00125 0.001771875 0.00668182974929
359 1 -0.024215625 -0.00125 0.002953125 0.0698876476892
360 1 -0.024215625 -0.00125 0.004134375 0.133535038668
361 1 -0.024215625 -0.00125 0.005315625 0.123928325831
362 1 -0.024215625 -0.00125 0.006496875 0.066041103006
363 1 -0.024215625 -0.00125 0.007678125 0.000126657572948
364 1 -0.024215625 -0.00125 0.008859375 0.332327069371
365 1 -0.024215625 -0.00125 0.010040625 0.459722771872
366 1 -0.024215625 -0.00125 0.011221875 0.000126658700522
367 1 -0.024215625 -0.00125 0.012403125 0.0
368 1 -0.024215625 -0.00125 0.013584375 2.79378975481e-22
369 1 -0.024215625 -0.00125 0.014765625 0.000126658700522
370 1 -0.024215625 -0.00125 0.015946875 0.000126658700522
371 1 -0.024215625 -0.00125 0.017128125 6.01557630165e-07
372 1 -0.024215625 -0.00125 0.018309375 0.000126658700522
373 1 -0.024215625 -0.00125 0.019490625 0.000535662176186
374 1 -0.024215625 -0.00125 0.020671875 0.000126658700522
375 1 -0.024215625 -0.00125 0.021853125 1.74019667629e-11
376 1 -0.024215625 -0.00125 0.023034375 0.0
377 1 -0.024215625 -0.00125 0.024215625 0.0
378 1 -0.024215625 -0.00125 0.025396875 0.0
379 1 -0.024215625 -0.00125 0.026578125 0.0
380 1 -0.024215625 -0.00125 0.027759375 0.0
381 1 -0.023034375 -0.00125 -0.027759375 0.0075399670332
382 1 -0.023034375 -0.00125 -0.026578125 0.00037578707255
383 1 -0.023034375 -0.00125 -0.025396875 0.0138696939255
384 1 -0.023034375 -0.00125 -0.024215625 0.00474645121499
385 1 -0.023034375 -0.00125 -0.023034375 0.000126658700522
386 1 -0.023034375 -0.00125 -0.021853125 0.0443322841124
387 1 -0.023034375 -0.00125 -0.020671875 0.511187741896
388 1 -0.023034375 -0.00125 -0.019490625 0.000126657572948
389 1 -0.023034375 -0.00125 -0.018309375 4.52220221462e-06
390 1 -0.023034375 -0.00125 -0.017128125 1.74019667629e-11
391 1 -0.023034375 -0.00125 -0.015946875 1.74019667629e-11
392 1 -0.023034375 -0.00125 -0.014765625 0.0
393 1 -0.023034375 -0.00125 -0.013584375 0.0
394 1 -0.023034375 -0.00125 -0.012403125 0.0
395 1 -0.023034375 -0.00125 -0.011221875 1.74019667629e-11
396 1 -0.023034375 -0.00125 -0.010040625 0.00154812961495
397 1 -0.023034375 -0.00125 -0.008859375 0.0138696939255
398 1 -0.023034375 -0.00125 -0.007678125 0.0243767756543
399 1 -0.023034375 -0.00125 -0.006496875 0.0207856853608
400 1 -0.023034375 -0.00125 -0.005315625 0.0175125972543
401 1 -0.023034375 -0.00125 -0.004134375 0.0138696939255
402 1 -0.023034375 -0.00125 -0.002953125 0.0175125972543
403 1 -0.023034375 -0.00125 -0.001771875 0.00668182974929
404 1 -0.023034375 -0.00125 -0.000590625 0.0138696939255
405 1 -0.023034375 -0.00125 0.000590625 0.0443322974297
406 1 -0.023034375 -0.00125 0.001771875 0.0381872278205
407 1 -0.023034375 -0.00125 0.002953125 0.0622852495443
408 1 -0.023034375 -0.00125 0.004134375 0.00668182974929
409 1 -0.023034375 -0.00125 0.005315625 0.0138696939255
410 1 -0.023034375 -0.00125 0.006496875 0.00100194784546
411 1 -0.023034375 -0.00125 0.007678125 0.01386971523
412 1 -0.023034375 -0.00125 0.008859375 0.470910984646
413 1 -0.023034375 -0.00125 0.010040625 0.252716464147
414 1 -0.023034375 -0.00125 0.011221875 1.74019667629e-11
415 1 -0.023034375 -0.00125 0.012403125 1.74019667629e-11
416 1 -0.023034375 -0.00125 0.013584375 0.000126658700522
417 1 -0.023034375 -0.00125 0.014765625 0.0138696939255
418 1 -0.023034375 -0.00125 0.015946875 0.091233852548
419 1 -0.023034375 -0.00125 0.017128125 0.00474645121499
420 1 -0.023034375 -0.00125 0.018309375 0.00474645121499
421 1 -0.023034375 -0.00125 0.019490625 0.0138696939255
422 1 -0.023034375 -0.00125 0.020671875 0.000126658700522
423 1 -0.023034375 -0.00125 0.021853125 0.0
424 1 -0.023034375 -0.00125 0.023034375 1.74019667629e-11
425 1 -0.023034375 -0.00125 0.024215625 0.0
426 1 -0.023034375 -0.00125 0.025396875 0.0
427 1 -0.023034375 -0.00125 0.026578125 0.0
428 1 -0.023034375 -0.00125 0.027759375 0.00106278235535
429 1 -0.021853125 -0.00125 -0.028940625 0.0459959987098
430 1 -0.021853125 -0.00125 -0.027759375 0.0982655924987
431 1 -0.021853125 -0.00125 -0.026578125 0.000535662176186
432 1 -0.021853125 -0.00125 -0.025396875 0.01386971523
433 1 -0.021853125 -0.00125 -0.024215625 0.0138696939255
434 1 -0.021853125 -0.00125 -0.023034375 0.000126658700522
435 1 -0.021853125 -0.00125 -0.021853125 0.00474645121499
436 1 -0.021853125 -0.00125 -0.020671875 0.5
437 1 -0.021853125 -0.00125 -0.019490625 0.0138697081285
438 1 -0.021853125 -0.00125 -0.018309375 4.52220221462e-06
439 1 -0.021853125 -0.00125 -0.017128125 1.74019667629e-11
440 1 -0.021853125 -0.00125 -0.015946875 0.0
441 1 -0.021853125 -0.00125 -0.014765625 0.0
442 1 -0.021853125 -0.00125 -0.013584375 0.0
443 1 -0.021853125 -0.00125 -0.012403125 0.0
444 1 -0.021853125 -0.00125 -0.011221875 1.74019667629e-11
445 1 -0.021853125 -0.00125 -0.010040625 0.00668184101894
446 1 -0.021853125 -0.00125 -0.008859375 0.00668182974929
447 1 -0.021853125 -0.00125 -0.007678125 0.00154812961495
448 1 -0.021853125 -0.00125 -0.006496875 0.000535660654302
449 1 -0.021853125 -0.00125 -0.005315625 0.0138696939255
450 1 -0.021853125 -0.00125 -0.004134375 0.0138696939255
451 1 -0.021853125 -0.00125 -0.002953125 0.0175125972543
452 1 -0.021853125 -0.00125 -0.001771875 0.00154812961495
453 1 -0.021853125 -0.00125 -0.000590625 0.00668184101894
454 1 -0.021853125 -0.00125 0.000590625 0.000299131636816
455 1 -0.021853125 -0.00125 0.001771875 0.01386971523
456 1 -0.021853125 -0.00125 0.002953125 0.01386971523
457 1 -0.021853125 -0.00125 0.004134375 0.00474644221021
458 1 -0.021853125 -0.00125 0.005315625 0.0138696939255
459 1 -0.021853125 -0.00125 0.006496875 0.000741931199387
460 1 -0.021853125 -0.00125 0.007678125 0.0293069007767
461 1 -0.021853125 -0.00125 0.008859375 0.591734853249
462 1 -0.021853125 -0.00125 0.010040625 0.314525490432
463 1 -0.021853125 -0.00125 0.011221875 0.000126657572948
464 1 -0.021853125 -0.00125 0.012403125 0.0
465 1 -0.021853125 -0.00125 0.013584375 0.0156289676205
466 1 -0.021853125 -0.00125 0.014765625 0.14929428164
467 1 -0.021853125 -0.00125 0.015946875 0.091233852548
468 1 -0.021853125 -0.00125 0.017128125 0.00154813293271
469 1 -0.021853125 -0.00125 0.018309375 0.00154813293271
470 1 -0.021853125 -0.00125 0.019490625 0.0138696939255
471 1 -0.021853125 -0.00125 0.020671875 0.000126658700522
472 1 -0.021853125 -0.00125 0.021853125 0.0
473 1 -0.021853125 -0.00125 0.023034375 0.0
474 1 -0.021853125 -0.00125 0.024215625 0.000126658700522
475 1 -0.021853125 -0.00125 0.025396875 0.0
476 1 -0.021853125 -0.00125 0.026578125 0.0
477 1 -0.021853125 -0.00125 0.027759375 1.18026294841e-10
478 1 -0.021853125 -0.00125 0.028940625 0.00466864259094
479 1 -0.020671875 -0.00125 -0.030121875 8.01171833736e-10
480 1 -0.020671875 -0.00125 -0.028940625 0.000245540111831
481 1 -0.020671875 -0.00125 -0.027759375 0.0
482 1 -0.020671875 -0.00125 -0.026578125 3.14925560351e-13
483 1 -0.020671875 -0.00125 -0.025396875 0.000126658700522
484 1 -0.020671875 -0.00125 -0.024215625 0.0138696939255
485 1 -0.020671875 -0.00125 -0.023034375 0.00474645121499
486 1 -0.020671875 -0.00125 -0.021853125 0.00474645121499
487 1 -0.020671875 -0.00125 -0.020671875 0.292342717184
488 1 -0.020671875 -0.00125 -0.019490625 0.0364315046602
489 1 -0.020671875 -0.00125 -0.018309375 4.52220221462e-06
490 1 -0.020671875 -0.00125 -0.017128125 0.0
491 1 -0.020671875 -0.00125 -0.015946875 0.0
492 1 -0.020671875 -0.00125 -0.014765625 0.0
493 1 -0.020671875 -0.00125 -0.013584375 2.79378975481e-22
494 1 -0.020671875 -0.00125 -0.012403125 1.74019667629e-11
495 1 -0.020671875 -0.00125 -0.011221875 3.70458005324e-08
496 1 -0.020671875 -0.00125 -0.010040625 0.000891017573599
497 1 -0.020671875 -0.00125 -0.008859375 1.74019667629e-11
498 1 -0.020671875 -0.00125 -0.007678125 0.000891023127979
499 1 -0.020671875 -0.00125 -0.006496875 0.00284458163855
500 1 -0.020671875 -0.00125 -0.005315625 0.109003711423
501 1 -0.020671875 -0.00125 -0.004134375 0.0293069224194
502 1 -0.020671875 -0.00125 -0.002953125 0.0698876476892
503 1 -0.020671875 -0.00125 -0.001771875 0.0293069007767
504 1 -0.020671875 -0.00125 -0.000590625 0.0107214449368
505 1 -0.020671875 -0.00125 0.000590625 0.0243767952624
506 1 -0.020671875 -0.00125 0.001771875 0.01386971523
507 1 -0.020671875 -0.00125 0.002953125 0.00668182974929
508 1 -0.020671875 -0.00125 0.004134375 4.52220221462e-06
509 1 -0.020671875 -0.00125 0.005315625 0.000126658700522
510 1 -0.020671875 -0.00125 0.006496875 0.000891017573599
511 1 -0.020671875 -0.00125 0.007678125 0.332326556717
512 1 -0.020671875 -0.00125 0.008859375 0.591734291704
513 1 -0.020671875 -0.00125 0.010040625 0.0622852495443
514 1 -0.020671875 -0.00125 0.011221875 0.00668184101894
515 1 -0.020671875 -0.00125 0.012403125 0.000126658700522
516 1 -0.020671875 -0.00125 0.013584375 0.0475687797882
517 1 -0.020671875 -0.00125 0.014765625 0.114532075754
518 1 -0.020671875 -0.00125 0.015946875 0.00474645121499
519 1 -0.020671875 -0.00125 0.017128125 0.0138696939255
520 1 -0.020671875 -0.00125 0.018309375 0.091233852548
521 1 -0.020671875 -0.00125 0.019490625 0.0364315046602
522 1 -0.020671875 -0.00125 0.020671875 0.000126658700522
523 1 -0.020671875 -0.00125 0.021853125 0.0
524 1 -0.020671875 -0.00125 0.023034375 0.0
525 1 -0.020671875 -0.00125 0.024215625 0.000126658700522
526 1 -0.020671875 -0.00125 0.025396875 0.000126658700522
527 1 -0.020671875 -0.00125 0.026578125 0.0
528 1 -0.020671875 -0.00125 0.027759375 1.74019667629e-11
529 1 -0.020671875 -0.00125 0.028940625 1.18574745776e-05
530 1 -0.020671875 -0.00125 0.030121875 0.0
531 1 -0.019490625 -0.00125 -0.031303125 0.0
532 1 -0.019490625 -0.00125 -0.030121875 0.0
533 1 -0.019490625 -0.00125 -0.028940625 0.0
534 1 -0.019490625 -0.00125 -0.027759375 0.0
535 1 -0.019490625 -0.00125 -0.026578125 7.49709589486e-44
536 1 -0.019490625 -0.00125 -0.025396875 0.000535662176186
537 1 -0.019490625 -0.00125 -0.024215625 0.0138696939255
538 1 -0.019490625 -0.00125 -0.023034375 0.0138697081285
539 1 -0.019490625 -0.00125 -0.021853125 0.0138696939255
540 1 -0.019490625 -0.00125 -0.020671875 0.238544232212
541 1 -0.019490625 -0.00125 -0.019490625 0.39987832843
542 1 -0.019490625 -0.00125 -0.018309375 0.0564722735982
543 1 -0.019490625 -0.00125 -0.017128125 0.0660413097959
544 1 -0.019490625 -0.00125 -0.015946875 0.0509112007263
545 1 -0.019490625 -0.00125 -0.014765625 0.0207856943371
546 1 -0.019490625 -0.00125 -0.013584375 0.0770301031039
547 1 -0.019490625 -0.00125 -0.012403125 0.151294870267
548 1 -0.019490625 -0.00125 -0.011221875 0.136454828838
549 1 -0.019490625 -0.00125 -0.010040625 0.31786017033
550 1 -0.019490625 -0.00125 -0.008859375 0.277980481053
551 1 -0.019490625 -0.00125 -0.007678125 0.321196210886
552 1 -0.019490625 -0.00125 -0.006496875 0.171627460262
553 1 -0.019490625 -0.00125 -0.005315625 0.335669010033
554 1 -0.019490625 -0.00125 -0.004134375 0.277980481053
555 1 -0.019490625 -0.00125 -0.002953125 0.131597898254
556 1 -0.019490625 -0.00125 -0.001771875 0.180950835502
557 1 -0.019490625 -0.00125 -0.000590625 0.326759914968
558 1 -0.019490625 -0.00125 0.000590625 0.21908624719
559 1 -0.019490625 -0.00125 0.001771875 0.210512024955
560 1 -0.019490625 -0.00125 0.002953125 0.191419372554
561 1 -0.019490625 -0.00125 0.004134375 0.136454951369