ITEM: TIMESTEP
0
ITEM: NUMBER OF ATOMS
3080
ITEM: BOX BOUNDS ss ss ss
-3.7007399999999996e-02 3.7007399999999996e-02
-2.0002499999999999e-03 2.5000000000000004e-07
-3.7007399999999996e-02 3.7007399999999996e-02
ITEM: ATOMS id type x y z c_1
0 1 -0.037209375 -0.00125 -0.000590625 1.0
1 1 -0.036028125 -0.00125 -0.007678125 0.0
2 1 -0.036028125 -0.00125 -0.006496875 0.0
3 1 -0.036028125 -0.00125 -0.005315625 0.0
4 1 -0.036028125 -0.00125 -0.004134375 0.0
5 1 -0.036028125 -0.00125 -0.002953125 0.0
6 1 -0.036028125 -0.00125 -0.001771875 0.0
7 1 -0.036028125 -0.00125 -0.000590625 0.0
8 1 -0.036028125 -0.00125 0.000590625 0.0
9 1 -0.036028125 -0.00125 0.001771875 0.0
10 1 -0.036028125 -0.00125 0.002953125 0.0
11 1 -0.036028125 -0.00125 0.004134375 0.0
12 1 -0.036028125 -0.00125 0.005315625 0.0
13 1 -0.036028125 -0.00125 0.006496875 0.0
14 1 -0.036028125 -0.00125 0.007678125 0.0
15 1 -0.034846875 -0.00125 -0.011221875 1.7269595626e-06
16 1 -0.034846875 -0.00125 -0.010040625 0.0
17 1 -0.034846875 -0.00125 -0.008859375 0.0
18 1 -0.034846875 -0.00125 -0.007678125 0.0
19 1 -0.034846875 -0.00125 -0.006496875 0.0
20 1 -0.034846875 -0.00125 -0.005315625 0.0
21 1 -0.034846875 -0.00125 -0.004134375 0.0
22 1 -0.034846875 -0.00125 -0.002953125 0.0
23 1 -0.034846875 -0.00125 -0.001771875 0.0
24 1 -0.034846875 -0.00125 -0.000590625 0.0
25 1 -0.034846875 -0.00125 0.000590625 0.0
26 1 -0.034846875 -0.00125 0.001771875 0.0
27 1 -0.034846875 -0.00125 0.002953125 0.0
28 1 -0.034846875 -0.00125 0.004134375 0.0
29 1 -0.034846875 -0.00125 0.005315625 0.0
30 1 -0.034846875 -0.00125 0.006496875 0.0
31 1 -0.034846875 -0.00125 0.007678125 0.0
32 1 -0.034846875 -0.00125 0.008859375 0.0
33 1 -0.034846875 -0.00125 0.010040625 0.0
34 1 -0.034846875 -0.00125 0.011221875 0.0
35 1 -0.033665625 -0.00125 -0.013584375 0.0
36 1 -0.033665625 -0.00125 -0.012403125 5.44412977554e-09
37 1 -0.033665625 -0.00125 -0.011221875 0.0
38 1 -0.033665625 -0.00125 -0.010040625 0.0
39 1 -0.033665625 -0.00125 -0.008859375 0.0
40 1 -0.033665625 -0.00125 -0.007678125 0.0
41 1 -0.033665625 -0.00125 -0.006496875 0.0
42 1 -0.033665625 -0.00125 -0.005315625 0.0
43 1 -0.033665625 -0.00125 -0.004134375 0.0
44 1 -0.033665625 -0.00125 -0.002953125 0.0
45 1 -0.033665625 -0.00125 -0.001771875 0.0
46 1 -0.033665625 -0.00125 -0.000590625 0.0
47 1 -0.033665625 -0.00125 0.000590625 0.0
48 1 -0.033665625 -0.00125 0.001771875 0.0
49 1 -0.033665625 -0.00125 0.002953125 0.0
50 1 -0.033665625 -0.00125 0.004134375 0.0
51 1 -0.033665625 -0.00125 0.005315625 0.0
52 1 -0.033665625 -0.00125 0.006496875 0.0
53 1 -0.033665625 -0.00125 0.007678125 0.0
54 1 -0.033665625 -0.00125 0.008859375 0.0
55 1 -0.033665625 -0.00125 0.010040625 0.0
56 1 -0.033665625 -0.00125 0.011221875 0.0
57 1 -0.033665625 -0.00125 0.012403125 0.0
58 1 -0.033665625 -0.00125 0.013584375 0.0
59 1 -0.032484375 -0.00125 -0.018309375 1.7269595626e-06
60 1 -0.032484375 -0.00125 -0.017128125 5.44412977554e-09
61 1 -0.032484375 -0.00125 -0.015946875 2.56728544141e-12
62 1 -0.032484375 -0.00125 -0.014765625 0.0
63 1 -0.032484375 -0.00125 -0.013584375 0.0
64 1 -0.032484375 -0.00125 -0.012403125 0.0
65 1 -0.032484375 -0.00125 -0.011221875 0.0
66 1 -0.032484375 -0.00125 -0.010040625 0.0
67 1 -0.032484375 -0.00125 -0.008859375 0.0
68 1 -0.032484375 -0.00125 -0.007678125 0.0
69 1 -0.032484375 -0.00125 -0.006496875 0.0
70 1 -0.032484375 -0.00125 -0.005315625 0.0
71 1 -0.032484375 -0.00125 -0.004134375 0.0
72 1 -0.032484375 -0.00125 -0.002953125 0.0
73 1 -0.032484375 -0.00125 -0.001771875 0.0
74 1 -0.032484375 -0.00125 -0.000590625 0.0
75 1 -0.032484375 -0.00125 0.000590625 0.0
76 1 -0.032484375 -0.00125 0.001771875 0.0
77 1 -0.032484375 -0.00125 0.002953125 0.0
78 1 -0.032484375 -0.00125 0.004134375 0.0
79 1 -0.032484375 -0.00125 0.005315625 0.0
80 1 -0.032484375 -0.00125 0.006496875 0.0
81 1 -0.032484375 -0.00125 0.007678125 0.0
82 1 -0.032484375 -0.00125 0.008859375 0.0
83 1 -0.032484375 -0.00125 0.010040625 0.0
84 1 -0.032484375 -0.00125 0.011221875 0.0
85 1 -0.032484375 -0.00125 0.012403125 0.0
86 1 -0.032484375 -0.00125 0.013584375 0.0
87 1 -0.032484375 -0.00125 0.014765625 0.0
88 1 -0.032484375 -0.00125 0.015946875 0.0
89 1 -0.032484375 -0.00125 0.017128125 0.0
90 1 -0.032484375 -0.00125 0.018309375 0.0
91 1 -0.031303125 -0.00125 -0.019490625 2.66892347814e-17
92 1 -0.031303125 -0.00125 -0.018309375 0.0
93 1 -0.031303125 -0.00125 -0.017128125 0.0
94 1 -0.031303125 -0.00125 -0.015946875 0.0
95 1 -0.031303125 -0.00125 -0.014765625 0.0
96 1 -0.031303125 -0.00125 -0.013584375 0.0
97 1 -0.031303125 -0.00125 -0.012403125 0.0
98 1 -0.031303125 -0.00125 -0.011221875 0.0
99 1 -0.031303125 -0.00125 -0.010040625 0.0
100 1 -0.031303125 -0.00125 -0.008859375 0.0
101 1 -0.031303125 -0.00125 -0.007678125 0.0
102 1 -0.031303125 -0.00125 -0.006496875 0.0
103 1 -0.031303125 -0.00125 -0.005315625 0.0
104 1 -0.031303125 -0.00125 -0.004134375 0.0
105 1 -0.031303125 -0.00125 -0.002953125 0.0
106 1 -0.031303125 -0.00125 -0.001771875 0.0
107 1 -0.031303125 -0.00125 -0.000590625 0.0
108 1 -0.031303125 -0.00125 0.000590625 0.0
109 1 -0.031303125 -0.00125 0.001771875 0.0
110 1 -0.031303125 -0.00125 0.002953125 0.0
111 1 -0.031303125 -0.00125 0.004134375 0.0
112 1 -0.031303125 -0.00125 0.005315625 0.0
113 1 -0.031303125 -0.00125 0.006496875 0.0
114 1 -0.031303125 -0.00125 0.007678125 0.0
115 1 -0.031303125 -0.00125 0.008859375 0.0
116 1 -0.031303125 -0.00125 0.010040625 0.0
117 1 -0.031303125 -0.00125 0.011221875 0.0
118 1 -0.031303125 -0.00125 0.012403125 0.0
119 1 -0.031303125 -0.00125 0.013584375 0.0
120 1 -0.031303125 -0.00125 0.014765625 0.0
121 1 -0.031303125 -0.00125 0.015946875 0.0
122 1 -0.031303125 -0.00125 0.017128125 0.0
123 1 -0.031303125 -0.00125 0.018309375 0.0
124 1 -0.031303125 -0.00125 0.019490625 0.0
125 1 -0.030121875 -0.00125 -0.020671875 0.0
126 1 -0.030121875 -0.00125 -0.019490625 0.0
127 1 -0.030121875 -0.00125 -0.018309375 0.0
128 1 -0.030121875 -0.00125 -0.017128125 0.0
129 1 -0.030121875 -0.00125 -0.015946875 0.0
130 1 -0.030121875 -0.00125 -0.014765625 0.0
131 1 -0.030121875 -0.00125 -0.013584375 0.0
132 1 -0.030121875 -0.00125 -0.012403125 0.0
133 1 -0.030121875 -0.00125 -0.011221875 0.0
134 1 -0.030121875 -0.00125 -0.010040625 0.0
135 1 -0.030121875 -0.00125 -0.008859375 0.0
136 1 -0.030121875 -0.00125 -0.007678125 0.0
137 1 -0.030121875 -0.00125 -0.006496875 0.0
138 1 -0.030121875 -0.00125 -0.005315625 0.0
139 1 -0.030121875 -0.00125 -0.004134375 0.0
140 1 -0.030121875 -0.00125 -0.002953125 0.0
141 1 -0.030121875 -0.00125 -0.001771875 0.0
142 1 -0.030121875 -0.00125 -0.000590625 0.0
143 1 -0.030121875 -0.00125 0.000590625 0.0
144 1 -0.030121875 -0.00125 0.001771875 0.0
145 1 -0.030121875 -0.00125 0.002953125 0.0
146 1 -0.030121875 -0.00125 0.004134375 0.0
147 1 -0.030121875 -0.00125 0.005315625 0.0
148 1 -0.030121875 -0.00125 0.006496875 0.0
149 1 -0.030121875 -0.00125 0.007678125 0.0
150 1 -0.030121875 -0.00125 0.008859375 0.0
151 1 -0.030121875 -0.00125 0.010040625 0.0
152 1 -0.030121875 -0.00125 0.011221875 0.0
153 1 -0.030121875 -0.00125 0.012403125 0.0
154 1 -0.030121875 -0.00125 0.013584375 0.0
155 1 -0.030121875 -0.00125 0.014765625 0.0
156 1 -0.030121875 -0.00125 0.015946875 0.0
157 1 -0.030121875 -0.00125 0.017128125 0.0
158 1 -0.030121875 -0.00125 0.018309375 0.0
159 1 -0.030121875 -0.00125 0.019490625 0.0
160 1 -0.030121875 -0.00125 0.020671875 0.0
161 1 -0.028940625 -0.00125 -0.021853125 0.00466864259094
162 1 -0.028940625 -0.00125 -0.020671875 0.000245540111831
163 1 -0.028940625 -0.00125 -0.019490625 0.0
164 1 -0.028940625 -0.00125 -0.018309375 0.0
165 1 -0.028940625 -0.00125 -0.017128125 0.0
166 1 -0.028940625 -0.00125 -0.015946875 0.0
167 1 -0.028940625 -0.00125 -0.014765625 0.0
168 1 -0.028940625 -0.00125 -0.013584375 0.0
169 1 -0.028940625 -0.00125 -0.012403125 0.0
170 1 -0.028940625 -0.00125 -0.011221875 0.0
171 1 -0.028940625 -0.00125 -0.010040625 0.0
172 1 -0.028940625 -0.00125 -0.008859375 0.0
173 1 -0.028940625 -0.00125 -0.007678125 0.0
174 1 -0.028940625 -0.00125 -0.006496875 0.0
175 1 -0.028940625 -0.00125 -0.005315625 0.0
176 1 -0.028940625 -0.00125 -0.004134375 0.0
177 1 -0.028940625 -0.00125 -0.002953125 0.0
178 1 -0.028940625 -0.00125 -0.001771875 0.0
179 1 -0.028940625 -0.00125 -0.000590625 0.0
180 1 -0.028940625 -0.00125 0.000590625 0.0
181 1 -0.028940625 -0.00125 0.001771875 0.0
182 1 -0.028940625 -0.00125 0.002953125 0.0
183 1 -0.028940625 -0.00125 0.004134375 0.0
184 1 -0.028940625 -0.00125 0.005315625 0.0
185 1 -0.028940625 -0.00125 0.006496875 0.0
186 1 -0.028940625 -0.00125 0.007678125 0.0
187 1 -0.028940625 -0.00125 0.008859375 0.0
188 1 -0.028940625 -0.00125 0.010040625 0.0
189 1 -0.028940625 -0.00125 0.011221875 0.0
190 1 -0.028940625 -0.00125 0.012403125 0.0
191 1 -0.028940625 -0.00125 0.013584375 0.0
192 1 -0.028940625 -0.00125 0.014765625 0.0
193 1 -0.028940625 -0.00125 0.015946875 0.0
194 1 -0.028940625 -0.00125 0.017128125 0.0
195 1 -0.028940625 -0.00125 0.018309375 0.0
196 1 -0.028940625 -0.00125 0.019490625 0.0
197 1 -0.028940625 -0.00125 0.020671875 0.0
198 1 -0.028940625 -0.00125 0.021853125 0.0
199 1 -0.027759375 -0.00125 -0.024215625 0.0
200 1 -0.027759375 -0.00125 -0.023034375 0.00106278235535
201 1 -0.027759375 -0.00125 -0.021853125 0.000245540111831
202 1 -0.027759375 -0.00125 -0.020671875 0.0
203 1 -0.027759375 -0.00125 -0.019490625 0.0
204 1 -0.027759375 -0.00125 -0.018309375 0.0
205 1 -0.027759375 -0.00125 -0.017128125 0.0
206 1 -0.027759375 -0.00125 -0.015946875 0.0
207 1 -0.027759375 -0.00125 -0.014765625 0.0
208 1 -0.027759375 -0.00125 -0.013584375 0.0
209 1 -0.027759375 -0.00125 -0.012403125 0.0
210 1 -0.027759375 -0.00125 -0.011221875 0.0
211 1 -0.027759375 -0.00125 -0.010040625 0.0
212 1 -0.027759375 -0.00125 -0.008859375 0.0
213 1 -0.027759375 -0.00125 -0.007678125 0.0
214 1 -0.027759375 -0.00125 -0.006496875 0.0
215 1 -0.027759375 -0.00125 -0.005315625 0.0
216 1 -0.027759375 -0.00125 -0.004134375 0.0
217 1 -0.027759375 -0.00125 -0.002953125 0.0
218 1 -0.027759375 -0.00125 -0.001771875 0.0
219 1 -0.027759375 -0.00125 -0.000590625 0.0
220 1 -0.027759375 -0.00125 0.000590625 1.40785443464e-30
221 1 -0.027759375 -0.00125 0.001771875 0.0
222 1 -0.027759375 -0.00125 0.002953125 0.0
223 1 -0.027759375 -0.00125 0.004134375 0.0
224 1 -0.027759375 -0.00125 0.005315625 0.0
225 1 -0.027759375 -0.00125 0.006496875 0.0
226 1 -0.027759375 -0.00125 0.007678125 0.0
227 1 -0.027759375 -0.00125 0.008859375 0.0
228 1 -0.027759375 -0.00125 0.010040625 0.0
229 1 -0.027759375 -0.00125 0.011221875 0.0
230 1 -0.027759375 -0.00125 0.012403125 0.0
231 1 -0.027759375 -0.00125 0.013584375 0.0
232 1 -0.027759375 -0.00125 0.014765625 0.0
233 1 -0.027759375 -0.00125 0.015946875 0.0
234 1 -0.027759375 -0.00125 0.017128125 0.0
235 1 -0.027759375 -0.00125 0.018309375 0.0
236 1 -0.027759375 -0.00125 0.019490625 0.0
237 1 -0.027759375 -0.00125 0.020671875 0.0
238 1 -0.027759375 -0.00125 0.021853125 0.0
239 1 -0.027759375 -0.00125 0.023034375 0.0
240 1 -0.027759375 -0.00125 0.024215625 0.0
241 1 -0.026578125 -0.00125 -0.026578125 0.0
242 1 -0.026578125 -0.00125 -0.025396875 0.0
243 1 -0.026578125 -0.00125 -0.024215625 0.0
244 1 -0.026578125 -0.00125 -0.023034375 0.0
245 1 -0.026578125 -0.00125 -0.021853125 0.0
246 1 -0.026578125 -0.00125 -0.020671875 0.0
247 1 -0.026578125 -0.00125 -0.019490625 0.0
248 1 -0.026578125 -0.00125 -0.018309375 0.0
249 1 -0.026578125 -0.00125 -0.017128125 0.0
250 1 -0.026578125 -0.00125 -0.015946875 0.0
251 1 -0.026578125 -0.00125 -0.014765625 0.0
252 1 -0.026578125 -0.00125 -0.013584375 0.0
253 1 -0.026578125 -0.00125 -0.012403125 2.79378975481e-22
254 1 -0.026578125 -0.00125 -0.011221875 2.79378975481e-22
255 1 -0.026578125 -0.00125 -0.010040625 0.000126657322377
256 1 -0.026578125 -0.00125 -0.008859375 0.0844390874959
257 1 -0.026578125 -0.00125 -0.007678125 0.186171540908
258 1 -0.026578125 -0.00125 -0.006496875 0.248346627637
259 1 -0.026578125 -0.00125 -0.005315625 0.243984912454
260 1 -0.026578125 -0.00125 -0.004134375 0.205179062488
261 1 -0.026578125 -0.00125 -0.002953125 0.205179062488
262 1 -0.026578125 -0.00125 -0.001771875 0.172658474079
263 1 -0.026578125 -0.00125 -0.000590625 0.163426307733
264 1 -0.026578125 -0.00125 0.000590625 0.0061478516602
265 1 -0.026578125 -0.00125 0.001771875 0.000535662176186
266 1 -0.026578125 -0.00125 0.002953125 0.000126658700522
267 1 -0.026578125 -0.00125 0.004134375 0.000126658700522
268 1 -0.026578125 -0.00125 0.005315625 0.000126658700522
269 1 -0.026578125 -0.00125 0.006496875 0.00188914836156
270 1 -0.026578125 -0.00125 0.007678125 1.74014005978e-11
271 1 -0.026578125 -0.00125 0.008859375 3.14925560351e-13
272 1 -0.026578125 -0.00125 0.010040625 1.40785443464e-30
273 1 -0.026578125 -0.00125 0.011221875 0.0
274 1 -0.026578125 -0.00125 0.012403125 0.0
275 1 -0.026578125 -0.00125 0.013584375 0.0
276 1 -0.026578125 -0.00125 0.014765625 0.0
277 1 -0.026578125 -0.00125 0.015946875 0.0
278 1 -0.026578125 -0.00125 0.017128125 0.0
279 1 -0.026578125 -0.00125 0.018309375 0.0
280 1 -0.026578125 -0.00125 0.019490625 0.0
281 1 -0.026578125 -0.00125 0.020671875 0.0
282 1 -0.026578125 -0.00125 0.021853125 0.0
283 1 -0.026578125 -0.00125 0.023034375 0.0
284 1 -0.026578125 -0.00125 0.024215625 0.0
285 1 -0.026578125 -0.00125 0.025396875 0.0
286 1 -0.026578125 -0.00125 0.026578125 0.0
287 1 -0.025396875 -0.00125 -0.026578125 0.0
288 1 -0.025396875 -0.00125 -0.025396875 0.0
289 1 -0.025396875 -0.00125 -0.024215625 0.0
290 1 -0.025396875 -0.00125 -0.023034375 0.0
291 1 -0.025396875 -0.00125 -0.021853125 0.0
292 1 -0.025396875 -0.00125 -0.020671875 0.0
293 1 -0.025396875 -0.00125 -0.019490625 0.0
294 1 -0.025396875 -0.00125 -0.018309375 0.0
295 1 -0.025396875 -0.00125 -0.017128125 0.0
296 1 -0.025396875 -0.00125 -0.015946875 0.0
297 1 -0.025396875 -0.00125 -0.014765625 0.0
298 1 -0.025396875 -0.00125 -0.013584375 2.79378975481e-22
299 1 -0.025396875 -0.00125 -0.012403125 0.000891017573599
300 1 -0.025396875 -0.00125 -0.011221875 0.123928325831
301 1 -0.025396875 -0.00125 -0.010040625 0.39037452881
302 1 -0.025396875 -0.00125 -0.008859375 0.540276619563
303 1 -0.025396875 -0.00125 -0.007678125 0.149294323427
304 1 -0.025396875 -0.00125 -0.006496875 0.00154813127383
305 1 -0.025396875 -0.00125 -0.005315625 0.000299132858986
306 1 -0.025396875 -0.00125 -0.004134375 6.01557630165e-07
307 1 -0.025396875 -0.00125 -0.002953125 1.74019667629e-11
308 1 -0.025396875 -0.00125 -0.001771875 0.0
309 1 -0.025396875 -0.00125 -0.000590625 7.69885813891e-05
310 1 -0.025396875 -0.00125 0.000590625 6.01557630165e-07
311 1 -0.025396875 -0.00125 0.001771875 1.74019667629e-11
312 1 -0.025396875 -0.00125 0.002953125 1.74019667629e-11
313 1 -0.025396875 -0.00125 0.004134375 0.0
314 1 -0.025396875 -0.00125 0.005315625 0.0175125891118
315 1 -0.025396875 -0.00125 0.006496875 0.107179604771
316 1 -0.025396875 -0.00125 0.007678125 0.0107214510125
317 1 -0.025396875 -0.00125 0.008859375 0.000891017573599
318 1 -0.025396875 -0.00125 0.010040625 4.52227625942e-06
319 1 -0.025396875 -0.00125 0.011221875 0.0
320 1 -0.025396875 -0.00125 0.012403125 0.0
321 1 -0.025396875 -0.00125 0.013584375 0.0
322 1 -0.025396875 -0.00125 0.014765625 0.0
323 1 -0.025396875 -0.00125 0.015946875 0.0
324 1 -0.025396875 -0.00125 0.017128125 0.0
325 1 -0.025396875 -0.00125 0.018309375 0.0
326 1 -0.025396875 -0.00125 0.019490625 0.0
327 1 -0.025396875 -0.00125 0.020671875 0.0
328 1 -0.025396875 -0.00125 0.021853125 0.0
329 1 -0.025396875 -0.00125 0.023034375 0.0
330 1 -0.025396875 -0.00125 0.024215625 0.0
331 1 -0.025396875 -0.00125 0.025396875 0.0
332 1 -0.025396875 -0.00125 0.026578125 0.0
333 1 -0.024215625 -0.00125 -0.027759375 0.0
334 1 -0.024215625 -0.00125 -0.026578125 0.0
335 1 -0.024215625 -0.00125 -0.025396875 0.0
336 1 -0.024215625 -0.00125 -0.024215625 0.0
337 1 -0.024215625 -0.00125 -0.023034375 0.0
338 1 -0.024215625 -0.00125 -0.021853125 0.0
339 1 -0.024215625 -0.00125 -0.020671875 0.0
340 1 -0.024215625 -0.00125 -0.019490625 0.0
341 1 -0.024215625 -0.00125 -0.018309375 0.0
342 1 -0.024215625 -0.00125 -0.017128125 0.0
343 1 -0.024215625 -0.00125 -0.015946875 0.0
344 1 -0.024215625 -0.00125 -0.014765625 1.74019667629e-11
345 1 -0.024215625 -0.00125 -0.013584375 0.0167441592505
346 1 -0.024215625 -0.00125 -0.012403125 0.441823153862
347 1 -0.024215625 -0.00125 -0.011221875 0.459723333625
348 1 -0.024215625 -0.00125 -0.010040625 0.332327069371
349 1 -0.024215625 -0.00125 -0.008859375 0.0381872649833
350 1 -0.024215625 -0.00125 -0.007678125 1.74019667629e-11
351 1 -0.024215625 -0.00125 -0.006496875 4.52223923689e-06
352 1 -0.024215625 -0.00125 -0.005315625 0.0
353 1 -0.024215625 -0.00125 -0.004134375 1.74019667629e-11
354 1 -0.024215625 -0.00125 -0.002953125 0.0
355 1 -0.024215625 -0.00125 -0.001771875 0.0
356 1 -0.024215625 -0.00125 -0.000590625 1.58379826604e-05
357 1 -0.024215625 -0.00125 0.000590625 0.000126657572948
358 1 -0.024215625 -0.00125 0.001771875 1.74019667629e-11
359 1 -0.024215625 -0.00125 0.002953125 0.0
360 1 -0.024215625 -0.00125 0.004134375 4.42606186288e-05
361 1 -0.024215625 -0.00125 0.005315625 0.114532075754
362 1 -0.024215625 -0.00125 0.006496875 0.14929428164
363 1 -0.024215625 -0.00125 0.007678125 0.000466557301994
364 1 -0.024215625 -0.00125 0.008859375 0.000126658700522
365 1 -0.024215625 -0.00125 0.010040625 4.52227625942e-06
366 1 -0.024215625 -0.00125 0.011221875 0.000126658700522
367 1 -0.024215625 -0.00125 0.012403125 0.0
368 1 -0.024215625 -0.00125 0.013584375 0.0
369 1 -0.024215625 -0.00125 0.014765625 0.0
370 1 -0.024215625 -0.00125 0.015946875 0.0
371 1 -0.024215625 -0.00125 0.017128125 0.0
372 1 -0.024215625 -0.00125 0.018309375 0.0
373 1 -0.024215625 -0.00125 0.019490625 0.0
374 1 -0.024215625 -0.00125 0.020671875 0.0
375 1 -0.024215625 -0.00125 0.021853125 0.0
376 1 -0.024215625 -0.00125 0.023034375 0.0
377 1 -0.024215625 -0.00125 0.024215625 0.0
378 1 -0.024215625 -0.00125 0.025396875 0.0
379 1 -0.024215625 -0.00125 0.026578125 0.0
380 1 -0.024215625 -0.00125 0.027759375 0.0
381 1 -0.023034375 -0.00125 -0.027759375 0.00106278235535
382 1 -0.023034375 -0.00125 -0.026578125 0.0
383 1 -0.023034375 -0.00125 -0.025396875 0.0
384 1 -0.023034375 -0.00125 -0.024215625 0.0
385 1 -0.023034375 -0.00125 -0.023034375 0.0
386 1 -0.023034375 -0.00125 -0.021853125 0.0
387 1 -0.023034375 -0.00125 -0.020671875 0.0
388 1 -0.023034375 -0.00125 -0.019490625 0.0
389 1 -0.023034375 -0.00125 -0.018309375 6.01557630165e-07
390 1 -0.023034375 -0.00125 -0.017128125 0.0243767756543
391 1 -0.023034375 -0.00125 -0.015946875 0.0443322841124
392 1 -0.023034375 -0.00125 -0.014765625 0.091233852548
393 1 -0.023034375 -0.00125 -0.013584375 0.436229699835
394 1 -0.023034375 -0.00125 -0.012403125 0.430635859907
395 1 -0.023034375 -0.00125 -0.011221875 0.0698876476892
396 1 -0.023034375 -0.00125 -0.010040625 0.000126657572948
397 1 -0.023034375 -0.00125 -0.008859375 0.0
398 1 -0.023034375 -0.00125 -0.007678125 0.0
399 1 -0.023034375 -0.00125 -0.006496875 0.0
400 1 -0.023034375 -0.00125 -0.005315625 0.0
401 1 -0.023034375 -0.00125 -0.004134375 0.0
402 1 -0.023034375 -0.00125 -0.002953125 0.0
403 1 -0.023034375 -0.00125 -0.001771875 0.0
404 1 -0.023034375 -0.00125 -0.000590625 0.00019868031303
405 1 -0.023034375 -0.00125 0.000590625 0.00154812961495
406 1 -0.023034375 -0.00125 0.001771875 6.01557630165e-07
407 1 -0.023034375 -0.00125 0.002953125 0.0
408 1 -0.023034375 -0.00125 0.004134375 6.01557630165e-07
409 1 -0.023034375 -0.00125 0.005315625 0.0243767756543
410 1 -0.023034375 -0.00125 0.006496875 0.157333659238
411 1 -0.023034375 -0.00125 0.007678125 0.0243767756543
412 1 -0.023034375 -0.00125 0.008859375 0.000126658700522
413 1 -0.023034375 -0.00125 0.010040625 0.00668182974929
414 1 -0.023034375 -0.00125 0.011221875 0.00668182974929
415 1 -0.023034375 -0.00125 0.012403125 0.000891023127979
416 1 -0.023034375 -0.00125 0.013584375 2.79378975481e-22
417 1 -0.023034375 -0.00125 0.014765625 0.0
418 1 -0.023034375 -0.00125 0.015946875 0.0
419 1 -0.023034375 -0.00125 0.017128125 0.0
420 1 -0.023034375 -0.00125 0.018309375 0.0
421 1 -0.023034375 -0.00125 0.019490625 0.0
422 1 -0.023034375 -0.00125 0.020671875 0.0
423 1 -0.023034375 -0.00125 0.021853125 0.0
424 1 -0.023034375 -0.00125 0.023034375 0.0
425 1 -0.023034375 -0.00125 0.024215625 0.0
426 1 -0.023034375 -0.00125 0.025396875 0.0
427 1 -0.023034375 -0.00125 0.026578125 0.0
428 1 -0.023034375 -0.00125 0.027759375 0.0
429 1 -0.021853125 -0.00125 -0.028940625 0.00466864259094
430 1 -0.021853125 -0.00125 -0.027759375 0.0787499473627
431 1 -0.021853125 -0.00125 -0.026578125 2.79378975481e-22
432 1 -0.021853125 -0.00125 -0.025396875 0.0
433 1 -0.021853125 -0.00125 -0.024215625 0.0
434 1 -0.021853125 -0.00125 -0.023034375 0.0
435 1 -0.021853125 -0.00125 -0.021853125 0.0
436 1 -0.021853125 -0.00125 -0.020671875 1.74019667629e-11
437 1 -0.021853125 -0.00125 -0.019490625 4.52220221462e-06
438 1 -0.021853125 -0.00125 -0.018309375 0.00474644221021
439 1 -0.021853125 -0.00125 -0.017128125 0.252716464147
440 1 -0.021853125 -0.00125 -0.015946875 0.186171540908
441 1 -0.021853125 -0.00125 -0.014765625 0.252716464147
442 1 -0.021853125 -0.00125 -0.013584375 0.15935900069
443 1 -0.021853125 -0.00125 -0.012403125 0.0243767756543
444 1 -0.021853125 -0.00125 -0.011221875 0.000299131636816
445 1 -0.021853125 -0.00125 -0.010040625 4.52220221462e-06
446 1 -0.021853125 -0.00125 -0.008859375 4.52220221462e-06
447 1 -0.021853125 -0.00125 -0.007678125 0.00154812961495
448 1 -0.021853125 -0.00125 -0.006496875 4.52221866893e-06
449 1 -0.021853125 -0.00125 -0.005315625 0.0
450 1 -0.021853125 -0.00125 -0.004134375 4.52220221462e-06
451 1 -0.021853125 -0.00125 -0.002953125 1.74019667629e-11
452 1 -0.021853125 -0.00125 -0.001771875 1.74019667629e-11
453 1 -0.021853125 -0.00125 -0.000590625 7.02299466978e-08
454 1 -0.021853125 -0.00125 0.000590625 0.00668182974929
455 1 -0.021853125 -0.00125 0.001771875 0.0138696939255
456 1 -0.021853125 -0.00125 0.002953125 1.74019667629e-11
457 1 -0.021853125 -0.00125 0.004134375 6.01557630165e-07
458 1 -0.021853125 -0.00125 0.005315625 0.091233852548
459 1 -0.021853125 -0.00125 0.006496875 0.141358161149
460 1 -0.021853125 -0.00125 0.007678125 0.0138696939255
461 1 -0.021853125 -0.00125 0.008859375 0.0138696939255
462 1 -0.021853125 -0.00125 0.010040625 0.0138696939255
463 1 -0.021853125 -0.00125 0.011221875 0.0138696939255
464 1 -0.021853125 -0.00125 0.012403125 0.00154813293271
465 1 -0.021853125 -0.00125 0.013584375 0.000198679956635
466 1 -0.021853125 -0.00125 0.014765625 0.0
467 1 -0.021853125 -0.00125 0.015946875 0.0
468 1 -0.021853125 -0.00125 0.017128125 0.0
469 1 -0.021853125 -0.00125 0.018309375 0.0
470 1 -0.021853125 -0.00125 0.019490625 0.0
471 1 -0.021853125 -0.00125 0.020671875 0.0
472 1 -0.021853125 -0.00125 0.021853125 0.0
473 1 -0.021853125 -0.00125 0.023034375 0.0
474 1 -0.021853125 -0.00125 0.024215625 0.0
475 1 -0.021853125 -0.00125 0.025396875 0.0
476 1 -0.021853125 -0.00125 0.026578125 0.0
477 1 -0.021853125 -0.00125 0.027759375 0.0
478 1 -0.021853125 -0.00125 0.028940625 0.0
479 1 -0.020671875 -0.00125 -0.030121875 0.0
480 1 -0.020671875 -0.00125 -0.028940625 0.000245540111831
481 1 -0.020671875 -0.00125 -0.027759375 0.00474645121499
482 1 -0.020671875 -0.00125 -0.026578125 1.77729209249e-06
483 1 -0.020671875 -0.00125 -0.025396875 0.0
484 1 -0.020671875 -0.00125 -0.024215625 0.0
485 1 -0.020671875 -0.00125 -0.023034375 0.0
486 1 -0.020671875 -0.00125 -0.021853125 0.0
487 1 -0.020671875 -0.00125 -0.020671875 0.0
488 1 -0.020671875 -0.00125 -0.019490625 4.52220221462e-06
489 1 -0.020671875 -0.00125 -0.018309375 0.00154812961495
490 1 -0.020671875 -0.00125 -0.017128125 0.010721438861
491 1 -0.020671875 -0.00125 -0.015946875 0.000126658700522
492 1 -0.020671875 -0.00125 -0.014765625 0.0199375166154
493 1 -0.020671875 -0.00125 -0.013584375 0.0293069007767
494 1 -0.020671875 -0.00125 -0.012403125 0.000299131636816
495 1 -0.020671875 -0.00125 -0.011221875 0.00906545268845
496 1 -0.020671875 -0.00125 -0.010040625 0.000299131636816
497 1 -0.020671875 -0.00125 -0.008859375 4.52220221462e-06
498 1 -0.020671875 -0.00125 -0.007678125 0.00154812961495
499 1 -0.020671875 -0.00125 -0.006496875 0.000198679422043
500 1 -0.020671875 -0.00125 -0.005315625 0.000299131636816
501 1 -0.020671875 -0.00125 -0.004134375 0.00154812961495
502 1 -0.020671875 -0.00125 -0.002953125 1.74019667629e-11
503 1 -0.020671875 -0.00125 -0.001771875 0.0
504 1 -0.020671875 -0.00125 -0.000590625 0.0
505 1 -0.020671875 -0.00125 0.000590625 0.000126657572948
506 1 -0.020671875 -0.00125 0.001771875 0.123928763306
507 1 -0.020671875 -0.00125 0.002953125 0.0243767756543
508 1 -0.020671875 -0.00125 0.004134375 0.0622852805866
509 1 -0.020671875 -0.00125 0.005315625 0.224469737872
510 1 -0.020671875 -0.00125 0.006496875 0.0364314683579
511 1 -0.020671875 -0.00125 0.007678125 0.00154813293271
512 1 -0.020671875 -0.00125 0.008859375 0.0138696939255
513 1 -0.020671875 -0.00125 0.010040625 0.00474645121499
514 1 -0.020671875 -0.00125 0.011221875 0.000126658700522
515 1 -0.020671875 -0.00125 0.012403125 0.000126658700522
516 1 -0.020671875 -0.00125 0.013584375 7.02309649834e-08
517 1 -0.020671875 -0.00125 0.014765625 0.0
518 1 -0.020671875 -0.00125 0.015946875 0.0
519 1 -0.020671875 -0.00125 0.017128125 0.0
520 1 -0.020671875 -0.00125 0.018309375 0.0
521 1 -0.020671875 -0.00125 0.019490625 0.0
522 1 -0.020671875 -0.00125 0.020671875 0.0
523 1 -0.020671875 -0.00125 0.021853125 0.0
524 1 -0.020671875 -0.00125 0.023034375 0.0
525 1 -0.020671875 -0.00125 0.024215625 0.0
526 1 -0.020671875 -0.00125 0.025396875 0.0
527 1 -0.020671875 -0.00125 0.026578125 0.0
528 1 -0.020671875 -0.00125 0.027759375 0.0
529 1 -0.020671875 -0.00125 0.028940625 0.0
530 1 -0.020671875 -0.00125 0.030121875 0.0
531 1 -0.019490625 -0.00125 -0.031303125 2.66892347814e-17
532 1 -0.019490625 -0.00125 -0.030121875 0.0238015491649
533 1 -0.019490625 -0.00125 -0.028940625 0.0955755932906
534 1 -0.019490625 -0.00125 -0.027759375 0.06007667973
535 1 -0.019490625 -0.00125 -0.026578125 0.0243767168298
536 1 -0.019490625 -0.00125 -0.025396875 1.74019667629e-11
537 1 -0.019490625 -0.00125 -0.024215625 0.0
538 1 -0.019490625 -0.00125 -0.023034375 0.0
539 1 -0.019490625 -0.00125 -0.021853125 0.0
540 1 -0.019490625 -0.00125 -0.020671875 2.79378975481e-22
541 1 -0.019490625 -0.00125 -0.019490625 5.83924610867e-06
542 1 -0.019490625 -0.00125 -0.018309375 0.000535659512892
543 1 -0.019490625 -0.00125 -0.017128125 0.00322591575195
544 1 -0.019490625 -0.00125 -0.015946875 0.0412041993389
545 1 -0.019490625 -0.00125 -0.014765625 0.167516386218
546 1 -0.019490625 -0.00125 -0.013584375 0.116860373363
547 1 -0.019490625 -0.00125 -0.012403125 0.00565998393801
548 1 -0.019490625 -0.00125 -0.011221875 5.5634138017e-05
549 1 -0.019490625 -0.00125 -0.010040625 0.0
550 1 -0.019490625 -0.00125 -0.008859375 0.0
551 1 -0.019490625 -0.00125 -0.007678125 0.0
552 1 -0.019490625 -0.00125 -0.006496875 2.71824019983e-12
553 1 -0.019490625 -0.00125 -0.005315625 0.000198679422043
554 1 -0.019490625 -0.00125 -0.004134375 1.74014005978e-11
555 1 -0.019490625 -0.00125 -0.002953125 0.0
556 1 -0.019490625 -0.00125 -0.001771875 2.79378975481e-22
557 1 -0.019490625 -0.00125 -0.000590625 7.49709589486e-44
558 1 -0.019490625 -0.00125 0.000590625 0.00349873524201
559 1 -0.019490625 -0.00125 0.001771875 0.236372108528
560 1 -0.019490625 -0.00125 0.002953125 0.4977626482
561 1 -0.019490625 -0.00125 0.004134375 0.321195978177
562 1 -0.019490625 -0.00125 0.005315625 0.0999860491522
563 1 -0.019490625 -0.00125 0.006496875 0.0161809617099
564 1 -0.019490625 -0.00125 0.007678125 0.00565998798415
565 1 -0.019490625 -0.00125 0.008859375 0.0085515641959
566 1 -0.019490625 -0.00125 0.010040625 0.0138696939255
567 1 -0.019490625 -0.00125 0.011221875 0.0138696939255
568 1 -0.019490625 -0.00125 0.012403125 0.091233852548
569 1 -0.019490625 -0.00125 0.013584375 0.0933957659597
570 1 -0.019490625 -0.00125 0.014765625 0.036431516761
571 1 -0.019490625 -0.00125 0.015946875 0.0042484826861
572 1 -0.019490625 -0.00125 0.017128125 2.79378975481e-22
573 1 -0.019490625 -0.00125 0.018309375 0.0
574 1 -0.019490625 -0.00125 0.019490625 0.0
575 1 -0.019490625 -0.00125 0.020671875 0.0
576 1 -0.019490625 -0.00125 0.021853125 0.0
577 1 -0.019490625 -0.00125 0.023034375 0.0
578 1 -0.019490625 -0.00125 0.024215625 0.0
579 1 -0.019490625 -0.00125 0.025396875 0.0
580 1 -0.019490625 -0.00125 0.026578125 0.0
581 1 -0.019490625 -0.00125 0.027759375 0.0
582 1 -0.019490625 -0.00125 0.028940625 0.0
583 1 -0.019490625 -0.00125 0.030121875 0.0
584 1 -0.019490625 -0.00125 0.031303125 0.0
585 1 -0.018309375 -0.00125 -0.032484375 0.000455413315469
586 1 -0.018309375 -0.00125 -0.031303125 0.0100187543403
587 1 -0.018309375 -0.00125 -0.030121875 0.0999860491522
588 1 -0.018309375 -0.00125 -0.028940625 0.372492797347
589 1 -0.018309375 -0.00125 -0.027759375 0.649836732464
590 1 -0.018309375 -0.00125 -0.026578125 0.252716967449
591 1 -0.018309375 -0.00125 -0.025396875 1.74019667629e-11
592 1 -0.018309375 -0.00125 -0.024215625 1.74019667629e-11
593 1 -0.018309375 -0.00125 -0.023034375 1.74019667629e-11
594 1 -0.018309375 -0.00125 -0.021853125 6.01557630165e-07
595 1 -0.018309375 -0.00125 -0.020671875 0.00249557865471
596 1 -0.018309375 -0.00125 -0.019490625 0.0999858445987
597 1 -0.018309375 -0.00125 -0.018309375 0.196692230435
598 1 -0.018309375 -0.00125 -0.017128125 0.224469737872
599 1 -0.018309375 -0.00125 -0.015946875 0.419450043018
600 1 -0.018309375 -0.00125 -0.014765625 0.453010895051
601 1 -0.018309375 -0.00125 -0.013584375 0.167516386218
602 1 -0.018309375 -0.00125 -0.012403125 0.091233852548
603 1 -0.018309375 -0.00125 -0.011221875 0.01386971523
604 1 -0.018309375 -0.00125 -0.010040625 0.00154813293271
605 1 -0.018309375 -0.00125 -0.008859375 4.52227625942e-06
606 1 -0.018309375 -0.00125 -0.007678125 6.01557630165e-07
607 1 -0.018309375 -0.00125 -0.006496875 1.40785443464e-30
608 1 -0.018309375 -0.00125 -0.005315625 0.0
609 1 -0.018309375 -0.00125 -0.004134375 0.0