ITEM: TIMESTEP
0
ITEM: NUMBER OF ATOMS
3080
ITEM: BOX BOUNDS ss ss ss
-3.7007399999999996e-02 3.7007399999999996e-02
-2.0002499999999999e-03 2.5000000000000004e-07
-3.7007399999999996e-02 3.7007399999999996e-02
ITEM: ATOMS id type x y z c_1
0 1 -0.037209375 -0.00125 -0.000590625 1.0
1 1 -0.036028125 -0.00125 -0.007678125 0.00920066229086
2 1 -0.036028125 -0.00125 -0.006496875 0.0
3 1 -0.036028125 -0.00125 -0.005315625 0.0
4 1 -0.036028125 -0.00125 -0.004134375 0.0
5 1 -0.036028125 -0.00125 -0.002953125 3.70458005324e-08
6 1 -0.036028125 -0.00125 -0.001771875 0.17162733092
7 1 -0.036028125 -0.00125 -0.000590625 0.182529172436
8 1 -0.036028125 -0.00125 0.000590625 8.01171833736e-10
9 1 -0.036028125 -0.00125 0.001771875 0.0
10 1 -0.036028125 -0.00125 0.002953125 0.0
11 1 -0.036028125 -0.00125 0.004134375 0.0
12 1 -0.036028125 -0.00125 0.005315625 0.0
13 1 -0.036028125 -0.00125 0.006496875 0.0
14 1 -0.036028125 -0.00125 0.007678125 0.0
15 1 -0.034846875 -0.00125 -0.011221875 0.00920066229086
16 1 -0.034846875 -0.00125 -0.010040625 0.0
17 1 -0.034846875 -0.00125 -0.008859375 0.182529172436
18 1 -0.034846875 -0.00125 -0.007678125 0.112788508618
19 1 -0.034846875 -0.00125 -0.006496875 0.0
20 1 -0.034846875 -0.00125 -0.005315625 0.0
21 1 -0.034846875 -0.00125 -0.004134375 0.0
22 1 -0.034846875 -0.00125 -0.002953125 0.000126657572948
23 1 -0.034846875 -0.00125 -0.001771875 0.235286796702
24 1 -0.034846875 -0.00125 -0.000590625 0.372493358291
25 1 -0.034846875 -0.00125 0.000590625 0.0028445981816
26 1 -0.034846875 -0.00125 0.001771875 0.0
27 1 -0.034846875 -0.00125 0.002953125 0.0
28 1 -0.034846875 -0.00125 0.004134375 0.0
29 1 -0.034846875 -0.00125 0.005315625 0.0
30 1 -0.034846875 -0.00125 0.006496875 0.0
31 1 -0.034846875 -0.00125 0.007678125 0.0
32 1 -0.034846875 -0.00125 0.008859375 0.0
33 1 -0.034846875 -0.00125 0.010040625 0.0
34 1 -0.034846875 -0.00125 0.011221875 0.0
35 1 -0.033665625 -0.00125 -0.013584375 0.0
36 1 -0.033665625 -0.00125 -0.012403125 0.182529172436
37 1 -0.033665625 -0.00125 -0.011221875 0.112788508618
38 1 -0.033665625 -0.00125 -0.010040625 0.0
39 1 -0.033665625 -0.00125 -0.008859375 0.159358746116
40 1 -0.033665625 -0.00125 -0.007678125 0.091233852548
41 1 -0.033665625 -0.00125 -0.006496875 0.0
42 1 -0.033665625 -0.00125 -0.005315625 0.0
43 1 -0.033665625 -0.00125 -0.004134375 0.0
44 1 -0.033665625 -0.00125 -0.002953125 0.00154812961495
45 1 -0.033665625 -0.00125 -0.001771875 0.14929428164
46 1 -0.033665625 -0.00125 -0.000590625 0.332327069371
47 1 -0.033665625 -0.00125 0.000590625 0.0844387896825
48 1 -0.033665625 -0.00125 0.001771875 0.0
49 1 -0.033665625 -0.00125 0.002953125 0.0
50 1 -0.033665625 -0.00125 0.004134375 0.0
51 1 -0.033665625 -0.00125 0.005315625 0.0
52 1 -0.033665625 -0.00125 0.006496875 0.0
53 1 -0.033665625 -0.00125 0.007678125 0.0
54 1 -0.033665625 -0.00125 0.008859375 0.0
55 1 -0.033665625 -0.00125 0.010040625 0.0
56 1 -0.033665625 -0.00125 0.011221875 0.0
57 1 -0.033665625 -0.00125 0.012403125 0.0
58 1 -0.033665625 -0.00125 0.013584375 2.66892347814e-17
59 1 -0.032484375 -0.00125 -0.018309375 0.00920066229086
60 1 -0.032484375 -0.00125 -0.017128125 0.00106278235535
61 1 -0.032484375 -0.00125 -0.015946875 0.0
62 1 -0.032484375 -0.00125 -0.014765625 0.0
63 1 -0.032484375 -0.00125 -0.013584375 0.0
64 1 -0.032484375 -0.00125 -0.012403125 0.0187026438913
65 1 -0.032484375 -0.00125 -0.011221875 0.0138697081285
66 1 -0.032484375 -0.00125 -0.010040625 0.0
67 1 -0.032484375 -0.00125 -0.008859375 0.119202686097
68 1 -0.032484375 -0.00125 -0.007678125 0.191419108408
69 1 -0.032484375 -0.00125 -0.006496875 7.8331402925e-10
70 1 -0.032484375 -0.00125 -0.005315625 2.79378975481e-22
71 1 -0.032484375 -0.00125 -0.004134375 0.0
72 1 -0.032484375 -0.00125 -0.002953125 7.02299466978e-08
73 1 -0.032484375 -0.00125 -0.001771875 4.52223923689e-06
74 1 -0.032484375 -0.00125 -0.000590625 0.0495617869461
75 1 -0.032484375 -0.00125 0.000590625 0.109460801313
76 1 -0.032484375 -0.00125 0.001771875 0.0
77 1 -0.032484375 -0.00125 0.002953125 0.0
78 1 -0.032484375 -0.00125 0.004134375 0.0
79 1 -0.032484375 -0.00125 0.005315625 0.0
80 1 -0.032484375 -0.00125 0.006496875 0.0
81 1 -0.032484375 -0.00125 0.007678125 0.0
82 1 -0.032484375 -0.00125 0.008859375 0.0
83 1 -0.032484375 -0.00125 0.010040625 0.0
84 1 -0.032484375 -0.00125 0.011221875 0.0
85 1 -0.032484375 -0.00125 0.012403125 0.0
86 1 -0.032484375 -0.00125 0.013584375 0.0
87 1 -0.032484375 -0.00125 0.014765625 0.11493008829
88 1 -0.032484375 -0.00125 0.015946875 0.130090197529
89 1 -0.032484375 -0.00125 0.017128125 0.00106278235535
90 1 -0.032484375 -0.00125 0.018309375 0.0
91 1 -0.031303125 -0.00125 -0.019490625 8.50218305249e-07
92 1 -0.031303125 -0.00125 -0.018309375 0.00255490305485
93 1 -0.031303125 -0.00125 -0.017128125 0.0
94 1 -0.031303125 -0.00125 -0.015946875 0.0
95 1 -0.031303125 -0.00125 -0.014765625 0.0
96 1 -0.031303125 -0.00125 -0.013584375 0.0
97 1 -0.031303125 -0.00125 -0.012403125 0.0
98 1 -0.031303125 -0.00125 -0.011221875 0.0
99 1 -0.031303125 -0.00125 -0.010040625 0.0
100 1 -0.031303125 -0.00125 -0.008859375 0.091233852548
101 1 -0.031303125 -0.00125 -0.007678125 0.303422785529
102 1 -0.031303125 -0.00125 -0.006496875 0.0424421646735
103 1 -0.031303125 -0.00125 -0.005315625 4.52220221462e-06
104 1 -0.031303125 -0.00125 -0.004134375 0.000299131636816
105 1 -0.031303125 -0.00125 -0.002953125 4.52220221462e-06
106 1 -0.031303125 -0.00125 -0.001771875 0.000299131636816
107 1 -0.031303125 -0.00125 -0.000590625 1.74019667629e-11
108 1 -0.031303125 -0.00125 0.000590625 6.01557630165e-07
109 1 -0.031303125 -0.00125 0.001771875 0.0
110 1 -0.031303125 -0.00125 0.002953125 0.0
111 1 -0.031303125 -0.00125 0.004134375 0.0
112 1 -0.031303125 -0.00125 0.005315625 0.0
113 1 -0.031303125 -0.00125 0.006496875 0.0
114 1 -0.031303125 -0.00125 0.007678125 0.0
115 1 -0.031303125 -0.00125 0.008859375 0.0
116 1 -0.031303125 -0.00125 0.010040625 0.0
117 1 -0.031303125 -0.00125 0.011221875 0.0
118 1 -0.031303125 -0.00125 0.012403125 0.0
119 1 -0.031303125 -0.00125 0.013584375 0.0
120 1 -0.031303125 -0.00125 0.014765625 0.091233852548
121 1 -0.031303125 -0.00125 0.015946875 0.114532075754
122 1 -0.031303125 -0.00125 0.017128125 0.0
123 1 -0.031303125 -0.00125 0.018309375 0.0
124 1 -0.031303125 -0.00125 0.019490625 0.0
125 1 -0.030121875 -0.00125 -0.020671875 0.0
126 1 -0.030121875 -0.00125 -0.019490625 2.79378975481e-22
127 1 -0.030121875 -0.00125 -0.018309375 1.74019667629e-11
128 1 -0.030121875 -0.00125 -0.017128125 0.0
129 1 -0.030121875 -0.00125 -0.015946875 0.0
130 1 -0.030121875 -0.00125 -0.014765625 0.0
131 1 -0.030121875 -0.00125 -0.013584375 0.0
132 1 -0.030121875 -0.00125 -0.012403125 0.0
133 1 -0.030121875 -0.00125 -0.011221875 0.0
134 1 -0.030121875 -0.00125 -0.010040625 0.0
135 1 -0.030121875 -0.00125 -0.008859375 0.00474645121499
136 1 -0.030121875 -0.00125 -0.007678125 0.149294323427
137 1 -0.030121875 -0.00125 -0.006496875 0.0375974124942
138 1 -0.030121875 -0.00125 -0.005315625 0.00249557400626
139 1 -0.030121875 -0.00125 -0.004134375 0.000299131636816
140 1 -0.030121875 -0.00125 -0.002953125 0.00906545268845
141 1 -0.030121875 -0.00125 -0.001771875 1.74019667629e-11
142 1 -0.030121875 -0.00125 -0.000590625 0.0
143 1 -0.030121875 -0.00125 0.000590625 0.0
144 1 -0.030121875 -0.00125 0.001771875 0.0
145 1 -0.030121875 -0.00125 0.002953125 0.0
146 1 -0.030121875 -0.00125 0.004134375 0.0
147 1 -0.030121875 -0.00125 0.005315625 0.0
148 1 -0.030121875 -0.00125 0.006496875 0.0
149 1 -0.030121875 -0.00125 0.007678125 0.0
150 1 -0.030121875 -0.00125 0.008859375 0.0
151 1 -0.030121875 -0.00125 0.010040625 0.0
152 1 -0.030121875 -0.00125 0.011221875 0.0
153 1 -0.030121875 -0.00125 0.012403125 0.0
154 1 -0.030121875 -0.00125 0.013584375 0.0
155 1 -0.030121875 -0.00125 0.014765625 0.091233852548
156 1 -0.030121875 -0.00125 0.015946875 0.21372123369
157 1 -0.030121875 -0.00125 0.017128125 1.22156214432e-15
158 1 -0.030121875 -0.00125 0.018309375 0.0
159 1 -0.030121875 -0.00125 0.019490625 0.0
160 1 -0.030121875 -0.00125 0.020671875 0.0
161 1 -0.028940625 -0.00125 -0.021853125 0.0
162 1 -0.028940625 -0.00125 -0.020671875 0.0
163 1 -0.028940625 -0.00125 -0.019490625 1.74014005978e-11
164 1 -0.028940625 -0.00125 -0.018309375 4.52220221462e-06
165 1 -0.028940625 -0.00125 -0.017128125 0.0
166 1 -0.028940625 -0.00125 -0.015946875 0.0
167 1 -0.028940625 -0.00125 -0.014765625 0.0
168 1 -0.028940625 -0.00125 -0.013584375 0.0
169 1 -0.028940625 -0.00125 -0.012403125 0.0
170 1 -0.028940625 -0.00125 -0.011221875 0.0
171 1 -0.028940625 -0.00125 -0.010040625 0.0
172 1 -0.028940625 -0.00125 -0.008859375 3.70458005324e-08
173 1 -0.028940625 -0.00125 -0.007678125 0.000126657572948
174 1 -0.028940625 -0.00125 -0.006496875 7.02299466978e-08
175 1 -0.028940625 -0.00125 -0.005315625 1.74019667629e-11
176 1 -0.028940625 -0.00125 -0.004134375 4.52220221462e-06
177 1 -0.028940625 -0.00125 -0.002953125 0.0
178 1 -0.028940625 -0.00125 -0.001771875 0.0
179 1 -0.028940625 -0.00125 -0.000590625 0.0
180 1 -0.028940625 -0.00125 0.000590625 0.0
181 1 -0.028940625 -0.00125 0.001771875 0.0
182 1 -0.028940625 -0.00125 0.002953125 0.0
183 1 -0.028940625 -0.00125 0.004134375 0.0
184 1 -0.028940625 -0.00125 0.005315625 0.0
185 1 -0.028940625 -0.00125 0.006496875 0.0
186 1 -0.028940625 -0.00125 0.007678125 0.0
187 1 -0.028940625 -0.00125 0.008859375 0.0
188 1 -0.028940625 -0.00125 0.010040625 0.0
189 1 -0.028940625 -0.00125 0.011221875 0.0
190 1 -0.028940625 -0.00125 0.012403125 0.0
191 1 -0.028940625 -0.00125 0.013584375 0.0
192 1 -0.028940625 -0.00125 0.014765625 0.186171540908
193 1 -0.028940625 -0.00125 0.015946875 0.186171540908
194 1 -0.028940625 -0.00125 0.017128125 0.0
195 1 -0.028940625 -0.00125 0.018309375 0.0
196 1 -0.028940625 -0.00125 0.019490625 0.0
197 1 -0.028940625 -0.00125 0.020671875 0.0
198 1 -0.028940625 -0.00125 0.021853125 0.0
199 1 -0.027759375 -0.00125 -0.024215625 0.0
200 1 -0.027759375 -0.00125 -0.023034375 0.0
201 1 -0.027759375 -0.00125 -0.021853125 0.0
202 1 -0.027759375 -0.00125 -0.020671875 1.74019667629e-11
203 1 -0.027759375 -0.00125 -0.019490625 1.74014005978e-11
204 1 -0.027759375 -0.00125 -0.018309375 4.52220221462e-06
205 1 -0.027759375 -0.00125 -0.017128125 0.0
206 1 -0.027759375 -0.00125 -0.015946875 0.0
207 1 -0.027759375 -0.00125 -0.014765625 0.0
208 1 -0.027759375 -0.00125 -0.013584375 0.0
209 1 -0.027759375 -0.00125 -0.012403125 0.0
210 1 -0.027759375 -0.00125 -0.011221875 0.0
211 1 -0.027759375 -0.00125 -0.010040625 0.0
212 1 -0.027759375 -0.00125 -0.008859375 0.0
213 1 -0.027759375 -0.00125 -0.007678125 0.0
214 1 -0.027759375 -0.00125 -0.006496875 2.79378975481e-22
215 1 -0.027759375 -0.00125 -0.005315625 0.0
216 1 -0.027759375 -0.00125 -0.004134375 0.0
217 1 -0.027759375 -0.00125 -0.002953125 0.0
218 1 -0.027759375 -0.00125 -0.001771875 0.0
219 1 -0.027759375 -0.00125 -0.000590625 0.0
220 1 -0.027759375 -0.00125 0.000590625 0.0
221 1 -0.027759375 -0.00125 0.001771875 0.0
222 1 -0.027759375 -0.00125 0.002953125 0.0
223 1 -0.027759375 -0.00125 0.004134375 0.0
224 1 -0.027759375 -0.00125 0.005315625 0.0
225 1 -0.027759375 -0.00125 0.006496875 0.0
226 1 -0.027759375 -0.00125 0.007678125 0.0
227 1 -0.027759375 -0.00125 0.008859375 0.0
228 1 -0.027759375 -0.00125 0.010040625 0.0
229 1 -0.027759375 -0.00125 0.011221875 0.0
230 1 -0.027759375 -0.00125 0.012403125 0.0
231 1 -0.027759375 -0.00125 0.013584375 2.79378975481e-22
232 1 -0.027759375 -0.00125 0.014765625 0.186171540908
233 1 -0.027759375 -0.00125 0.015946875 0.186171540908
234 1 -0.027759375 -0.00125 0.017128125 0.0
235 1 -0.027759375 -0.00125 0.018309375 0.0
236 1 -0.027759375 -0.00125 0.019490625 0.0
237 1 -0.027759375 -0.00125 0.020671875 0.0
238 1 -0.027759375 -0.00125 0.021853125 0.0
239 1 -0.027759375 -0.00125 0.023034375 0.0
240 1 -0.027759375 -0.00125 0.024215625 0.0
241 1 -0.026578125 -0.00125 -0.026578125 8.01171833736e-10
242 1 -0.026578125 -0.00125 -0.025396875 5.83546341147e-19
243 1 -0.026578125 -0.00125 -0.024215625 0.0
244 1 -0.026578125 -0.00125 -0.023034375 0.0
245 1 -0.026578125 -0.00125 -0.021853125 1.28752206004e-08
246 1 -0.026578125 -0.00125 -0.020671875 0.0335974296664
247 1 -0.026578125 -0.00125 -0.019490625 0.0191092768247
248 1 -0.026578125 -0.00125 -0.018309375 3.07877004318e-05
249 1 -0.026578125 -0.00125 -0.017128125 0.0
250 1 -0.026578125 -0.00125 -0.015946875 0.0
251 1 -0.026578125 -0.00125 -0.014765625 0.0
252 1 -0.026578125 -0.00125 -0.013584375 0.0
253 1 -0.026578125 -0.00125 -0.012403125 0.0
254 1 -0.026578125 -0.00125 -0.011221875 0.0
255 1 -0.026578125 -0.00125 -0.010040625 0.0
256 1 -0.026578125 -0.00125 -0.008859375 0.0
257 1 -0.026578125 -0.00125 -0.007678125 0.00118682600863
258 1 -0.026578125 -0.00125 -0.006496875 0.253810606836
259 1 -0.026578125 -0.00125 -0.005315625 0.221237607189
260 1 -0.026578125 -0.00125 -0.004134375 0.201989759728
261 1 -0.026578125 -0.00125 -0.002953125 0.183035864081
262 1 -0.026578125 -0.00125 -0.001771875 0.0187026692579
263 1 -0.026578125 -0.00125 -0.000590625 0.0295662064594
264 1 -0.026578125 -0.00125 0.000590625 0.0145584953165
265 1 -0.026578125 -0.00125 0.001771875 0.0698875825691
266 1 -0.026578125 -0.00125 0.002953125 0.128706809069
267 1 -0.026578125 -0.00125 0.004134375 7.6989341285e-05
268 1 -0.026578125 -0.00125 0.005315625 0.0
269 1 -0.026578125 -0.00125 0.006496875 0.0
270 1 -0.026578125 -0.00125 0.007678125 0.0
271 1 -0.026578125 -0.00125 0.008859375 0.0
272 1 -0.026578125 -0.00125 0.010040625 0.0
273 1 -0.026578125 -0.00125 0.011221875 0.0
274 1 -0.026578125 -0.00125 0.012403125 0.0
275 1 -0.026578125 -0.00125 0.013584375 2.21250281064e-07
276 1 -0.026578125 -0.00125 0.014765625 0.297879916303
277 1 -0.026578125 -0.00125 0.015946875 0.191419108408
278 1 -0.026578125 -0.00125 0.017128125 2.79378975481e-22
279 1 -0.026578125 -0.00125 0.018309375 0.0
280 1 -0.026578125 -0.00125 0.019490625 0.0
281 1 -0.026578125 -0.00125 0.020671875 0.0
282 1 -0.026578125 -0.00125 0.021853125 0.0
283 1 -0.026578125 -0.00125 0.023034375 0.0
284 1 -0.026578125 -0.00125 0.024215625 0.0
285 1 -0.026578125 -0.00125 0.025396875 0.0
286 1 -0.026578125 -0.00125 0.026578125 0.0
287 1 -0.025396875 -0.00125 -0.026578125 0.0
288 1 -0.025396875 -0.00125 -0.025396875 0.0
289 1 -0.025396875 -0.00125 -0.024215625 0.0
290 1 -0.025396875 -0.00125 -0.023034375 0.0
291 1 -0.025396875 -0.00125 -0.021853125 1.74019667629e-11
292 1 -0.025396875 -0.00125 -0.020671875 0.01386971523
293 1 -0.025396875 -0.00125 -0.019490625 0.123928564454
294 1 -0.025396875 -0.00125 -0.018309375 0.000126657572948
295 1 -0.025396875 -0.00125 -0.017128125 0.0
296 1 -0.025396875 -0.00125 -0.015946875 0.0
297 1 -0.025396875 -0.00125 -0.014765625 0.0
298 1 -0.025396875 -0.00125 -0.013584375 0.0
299 1 -0.025396875 -0.00125 -0.012403125 1.22156214432e-15
300 1 -0.025396875 -0.00125 -0.011221875 0.000891017573599
301 1 -0.025396875 -0.00125 -0.010040625 0.0199375166154
302 1 -0.025396875 -0.00125 -0.008859375 0.0827704828178
303 1 -0.025396875 -0.00125 -0.007678125 0.224469737872
304 1 -0.025396875 -0.00125 -0.006496875 0.21908624719
305 1 -0.025396875 -0.00125 -0.005315625 0.114532075754
306 1 -0.025396875 -0.00125 -0.004134375 0.114532075754
307 1 -0.025396875 -0.00125 -0.002953125 0.230952152116
308 1 -0.025396875 -0.00125 -0.001771875 0.292342717184
309 1 -0.025396875 -0.00125 -0.000590625 0.252716464147
310 1 -0.025396875 -0.00125 0.000590625 0.26147917725
311 1 -0.025396875 -0.00125 0.001771875 0.263674497482
312 1 -0.025396875 -0.00125 0.002953125 0.263675002831
313 1 -0.025396875 -0.00125 0.004134375 0.21372123369
314 1 -0.025396875 -0.00125 0.005315625 0.0622852495443
315 1 -0.025396875 -0.00125 0.006496875 0.0149103771607
316 1 -0.025396875 -0.00125 0.007678125 0.010721438861
317 1 -0.025396875 -0.00125 0.008859375 0.000299131636816
318 1 -0.025396875 -0.00125 0.010040625 0.000299131636816
319 1 -0.025396875 -0.00125 0.011221875 4.52220221462e-06
320 1 -0.025396875 -0.00125 0.012403125 1.74019667629e-11
321 1 -0.025396875 -0.00125 0.013584375 0.0698874848889
322 1 -0.025396875 -0.00125 0.014765625 0.343471904739
323 1 -0.025396875 -0.00125 0.015946875 0.00474645121499
324 1 -0.025396875 -0.00125 0.017128125 1.74019667629e-11
325 1 -0.025396875 -0.00125 0.018309375 0.0
326 1 -0.025396875 -0.00125 0.019490625 0.0
327 1 -0.025396875 -0.00125 0.020671875 0.0
328 1 -0.025396875 -0.00125 0.021853125 0.0
329 1 -0.025396875 -0.00125 0.023034375 0.0
330 1 -0.025396875 -0.00125 0.024215625 0.0
331 1 -0.025396875 -0.00125 0.025396875 0.0
332 1 -0.025396875 -0.00125 0.026578125 0.0
333 1 -0.024215625 -0.00125 -0.027759375 0.0
334 1 -0.024215625 -0.00125 -0.026578125 2.21841074473e-08
335 1 -0.024215625 -0.00125 -0.025396875 0.0
336 1 -0.024215625 -0.00125 -0.024215625 0.0
337 1 -0.024215625 -0.00125 -0.023034375 1.74019667629e-11
338 1 -0.024215625 -0.00125 -0.021853125 0.0
339 1 -0.024215625 -0.00125 -0.020671875 0.000126657572948
340 1 -0.024215625 -0.00125 -0.019490625 0.10266431786
341 1 -0.024215625 -0.00125 -0.018309375 0.0243767952624
342 1 -0.024215625 -0.00125 -0.017128125 0.000126658700522
343 1 -0.024215625 -0.00125 -0.015946875 0.0
344 1 -0.024215625 -0.00125 -0.014765625 0.0
345 1 -0.024215625 -0.00125 -0.013584375 1.40785443464e-30
346 1 -0.024215625 -0.00125 -0.012403125 0.000891017573599
347 1 -0.024215625 -0.00125 -0.011221875 0.165468790974
348 1 -0.024215625 -0.00125 -0.010040625 0.17575893658
349 1 -0.024215625 -0.00125 -0.008859375 0.207309638309
350 1 -0.024215625 -0.00125 -0.007678125 0.091233852548
351 1 -0.024215625 -0.00125 -0.006496875 0.00118682874801
352 1 -0.024215625 -0.00125 -0.005315625 1.74019667629e-11
353 1 -0.024215625 -0.00125 -0.004134375 1.74019667629e-11
354 1 -0.024215625 -0.00125 -0.002953125 0.00154813293271
355 1 -0.024215625 -0.00125 -0.001771875 0.00322594350264
356 1 -0.024215625 -0.00125 -0.000590625 0.00322594350264
357 1 -0.024215625 -0.00125 0.000590625 0.0243767854583
358 1 -0.024215625 -0.00125 0.001771875 0.0138696939255
359 1 -0.024215625 -0.00125 0.002953125 0.00474645121499
360 1 -0.024215625 -0.00125 0.004134375 0.0999860491522
361 1 -0.024215625 -0.00125 0.005315625 0.091233852548
362 1 -0.024215625 -0.00125 0.006496875 0.0622852805866
363 1 -0.024215625 -0.00125 0.007678125 0.00474645121499
364 1 -0.024215625 -0.00125 0.008859375 0.000126657572948
365 1 -0.024215625 -0.00125 0.010040625 0.000126657572948
366 1 -0.024215625 -0.00125 0.011221875 4.52220221462e-06
367 1 -0.024215625 -0.00125 0.012403125 0.0
368 1 -0.024215625 -0.00125 0.013584375 0.224469467126
369 1 -0.024215625 -0.00125 0.014765625 0.105365860212
370 1 -0.024215625 -0.00125 0.015946875 0.00474645121499
371 1 -0.024215625 -0.00125 0.017128125 0.0
372 1 -0.024215625 -0.00125 0.018309375 0.0
373 1 -0.024215625 -0.00125 0.019490625 0.0
374 1 -0.024215625 -0.00125 0.020671875 0.0
375 1 -0.024215625 -0.00125 0.021853125 1.74019667629e-11
376 1 -0.024215625 -0.00125 0.023034375 1.74019667629e-11
377 1 -0.024215625 -0.00125 0.024215625 0.0
378 1 -0.024215625 -0.00125 0.025396875 0.0
379 1 -0.024215625 -0.00125 0.026578125 0.0
380 1 -0.024215625 -0.00125 0.027759375 0.0
381 1 -0.023034375 -0.00125 -0.027759375 0.0075399670332
382 1 -0.023034375 -0.00125 -0.026578125 0.00284458672872
383 1 -0.023034375 -0.00125 -0.025396875 0.000126658700522
384 1 -0.023034375 -0.00125 -0.024215625 0.00154813293271
385 1 -0.023034375 -0.00125 -0.023034375 0.000126658700522
386 1 -0.023034375 -0.00125 -0.021853125 0.0
387 1 -0.023034375 -0.00125 -0.020671875 1.74019667629e-11
388 1 -0.023034375 -0.00125 -0.019490625 0.139391426418
389 1 -0.023034375 -0.00125 -0.018309375 0.21372123369
390 1 -0.023034375 -0.00125 -0.017128125 0.133535038668
391 1 -0.023034375 -0.00125 -0.015946875 0.000891017573599
392 1 -0.023034375 -0.00125 -0.014765625 0.0
393 1 -0.023034375 -0.00125 -0.013584375 3.14925560351e-13
394 1 -0.023034375 -0.00125 -0.012403125 0.0443322974297
395 1 -0.023034375 -0.00125 -0.011221875 0.0622852805866
396 1 -0.023034375 -0.00125 -0.010040625 0.00668184101894
397 1 -0.023034375 -0.00125 -0.008859375 0.00668182974929
398 1 -0.023034375 -0.00125 -0.007678125 4.52220221462e-06
399 1 -0.023034375 -0.00125 -0.006496875 7.02293809892e-08
400 1 -0.023034375 -0.00125 -0.005315625 0.00154812961495
401 1 -0.023034375 -0.00125 -0.004134375 0.01386971523
402 1 -0.023034375 -0.00125 -0.002953125 0.00154813293271
403 1 -0.023034375 -0.00125 -0.001771875 0.000891017573599
404 1 -0.023034375 -0.00125 -0.000590625 0.0381872649833
405 1 -0.023034375 -0.00125 0.000590625 0.0267810196531
406 1 -0.023034375 -0.00125 0.001771875 4.52220221462e-06
407 1 -0.023034375 -0.00125 0.002953125 1.74019667629e-11
408 1 -0.023034375 -0.00125 0.004134375 0.0
409 1 -0.023034375 -0.00125 0.005315625 1.74019667629e-11
410 1 -0.023034375 -0.00125 0.006496875 1.77729209249e-06
411 1 -0.023034375 -0.00125 0.007678125 0.0
412 1 -0.023034375 -0.00125 0.008859375 0.0
413 1 -0.023034375 -0.00125 0.010040625 0.0
414 1 -0.023034375 -0.00125 0.011221875 0.0
415 1 -0.023034375 -0.00125 0.012403125 0.0
416 1 -0.023034375 -0.00125 0.013584375 0.315636960593
417 1 -0.023034375 -0.00125 0.014765625 0.0698876476892
418 1 -0.023034375 -0.00125 0.015946875 6.01557630165e-07
419 1 -0.023034375 -0.00125 0.017128125 0.0
420 1 -0.023034375 -0.00125 0.018309375 0.0
421 1 -0.023034375 -0.00125 0.019490625 0.0
422 1 -0.023034375 -0.00125 0.020671875 0.0
423 1 -0.023034375 -0.00125 0.021853125 6.01557630165e-07
424 1 -0.023034375 -0.00125 0.023034375 0.000126657572948
425 1 -0.023034375 -0.00125 0.024215625 1.74019667629e-11
426 1 -0.023034375 -0.00125 0.025396875 0.0
427 1 -0.023034375 -0.00125 0.026578125 0.0
428 1 -0.023034375 -0.00125 0.027759375 0.0
429 1 -0.021853125 -0.00125 -0.028940625 0.00466864259094
430 1 -0.021853125 -0.00125 -0.027759375 0.000245540111831
431 1 -0.021853125 -0.00125 -0.026578125 0.0098718633607
432 1 -0.021853125 -0.00125 -0.025396875 0.0138696939255
433 1 -0.021853125 -0.00125 -0.024215625 0.00474645121499
434 1 -0.021853125 -0.00125 -0.023034375 0.000126658700522
435 1 -0.021853125 -0.00125 -0.021853125 1.74019667629e-11
436 1 -0.021853125 -0.00125 -0.020671875 6.01557630165e-07
437 1 -0.021853125 -0.00125 -0.019490625 0.13159769602
438 1 -0.021853125 -0.00125 -0.018309375 0.540276619563
439 1 -0.021853125 -0.00125 -0.017128125 0.21372123369
440 1 -0.021853125 -0.00125 -0.015946875 0.00249557400626
441 1 -0.021853125 -0.00125 -0.014765625 0.000126657572948
442 1 -0.021853125 -0.00125 -0.013584375 0.0098718633607
443 1 -0.021853125 -0.00125 -0.012403125 0.0550579936718
444 1 -0.021853125 -0.00125 -0.011221875 0.0107214510125
445 1 -0.021853125 -0.00125 -0.010040625 0.00322594350264
446 1 -0.021853125 -0.00125 -0.008859375 0.0243767756543
447 1 -0.021853125 -0.00125 -0.007678125 0.000299131636816
448 1 -0.021853125 -0.00125 -0.006496875 5.5634138017e-05
449 1 -0.021853125 -0.00125 -0.005315625 0.0175125972543
450 1 -0.021853125 -0.00125 -0.004134375 0.0293069007767
451 1 -0.021853125 -0.00125 -0.002953125 0.0243767756543
452 1 -0.021853125 -0.00125 -0.001771875 0.0381872278205
453 1 -0.021853125 -0.00125 -0.000590625 0.0550579642476
454 1 -0.021853125 -0.00125 0.000590625 0.0167441592505
455 1 -0.021853125 -0.00125 0.001771875 0.000126657572948
456 1 -0.021853125 -0.00125 0.002953125 0.000126657572948
457 1 -0.021853125 -0.00125 0.004134375 1.74019667629e-11
458 1 -0.021853125 -0.00125 0.005315625 0.000126657572948
459 1 -0.021853125 -0.00125 0.006496875 0.00805644213726
460 1 -0.021853125 -0.00125 0.007678125 0.000466557301994
461 1 -0.021853125 -0.00125 0.008859375 0.0
462 1 -0.021853125 -0.00125 0.010040625 0.0
463 1 -0.021853125 -0.00125 0.011221875 0.0
464 1 -0.021853125 -0.00125 0.012403125 1.74019667629e-11
465 1 -0.021853125 -0.00125 0.013584375 0.233118214189
466 1 -0.021853125 -0.00125 0.014765625 0.0138696939255
467 1 -0.021853125 -0.00125 0.015946875 0.000126658700522
468 1 -0.021853125 -0.00125 0.017128125 0.000126658700522
469 1 -0.021853125 -0.00125 0.018309375 0.000126658700522
470 1 -0.021853125 -0.00125 0.019490625 0.000126658700522
471 1 -0.021853125 -0.00125 0.020671875 0.000126658700522
472 1 -0.021853125 -0.00125 0.021853125 0.000126658700522
473 1 -0.021853125 -0.00125 0.023034375 0.00474645121499
474 1 -0.021853125 -0.00125 0.024215625 0.000126658700522
475 1 -0.021853125 -0.00125 0.025396875 0.0
476 1 -0.021853125 -0.00125 0.026578125 0.0
477 1 -0.021853125 -0.00125 0.027759375 0.0
478 1 -0.021853125 -0.00125 0.028940625 0.0
479 1 -0.020671875 -0.00125 -0.030121875 0.0
480 1 -0.020671875 -0.00125 -0.028940625 0.0
481 1 -0.020671875 -0.00125 -0.027759375 0.0
482 1 -0.020671875 -0.00125 -0.026578125 0.0207856853608
483 1 -0.020671875 -0.00125 -0.025396875 0.00474645121499
484 1 -0.020671875 -0.00125 -0.024215625 0.0138696939255
485 1 -0.020671875 -0.00125 -0.023034375 0.00154813293271
486 1 -0.020671875 -0.00125 -0.021853125 0.000126658700522
487 1 -0.020671875 -0.00125 -0.020671875 6.01557630165e-07
488 1 -0.020671875 -0.00125 -0.019490625 0.0564721843312
489 1 -0.020671875 -0.00125 -0.018309375 0.638675411355
490 1 -0.020671875 -0.00125 -0.017128125 0.482099221396
491 1 -0.020671875 -0.00125 -0.015946875 0.0293069224194
492 1 -0.020671875 -0.00125 -0.014765625 0.000891017573599
493 1 -0.020671875 -0.00125 -0.013584375 0.0827704306511
494 1 -0.020671875 -0.00125 -0.012403125 0.0827704828178
495 1 -0.020671875 -0.00125 -0.011221875 0.0550579642476
496 1 -0.020671875 -0.00125 -0.010040625 0.0746186412079
497 1 -0.020671875 -0.00125 -0.008859375 0.0243767756543
498 1 -0.020671875 -0.00125 -0.007678125 0.000299131636816
499 1 -0.020671875 -0.00125 -0.006496875 4.52221866893e-06
500 1 -0.020671875 -0.00125 -0.005315625 0.00249557400626
501 1 -0.020671875 -0.00125 -0.004134375 0.000299131636816
502 1 -0.020671875 -0.00125 -0.002953125 0.00668182974929
503 1 -0.020671875 -0.00125 -0.001771875 0.0243767756543
504 1 -0.020671875 -0.00125 -0.000590625 0.00668182974929
505 1 -0.020671875 -0.00125 0.000590625 0.0335972786663
506 1 -0.020671875 -0.00125 0.001771875 0.0746186412079
507 1 -0.020671875 -0.00125 0.002953125 0.114532075754
508 1 -0.020671875 -0.00125 0.004134375 0.0324964072365
509 1 -0.020671875 -0.00125 0.005315625 0.105365916973
510 1 -0.020671875 -0.00125 0.006496875 0.0869646852073
511 1 -0.020671875 -0.00125 0.007678125 0.0622852805866
512 1 -0.020671875 -0.00125 0.008859375 0.00474644221021
513 1 -0.020671875 -0.00125 0.010040625 6.01557630165e-07
514 1 -0.020671875 -0.00125 0.011221875 0.0
515 1 -0.020671875 -0.00125 0.012403125 0.00474645121499
516 1 -0.020671875 -0.00125 0.013584375 0.286812771634
517 1 -0.020671875 -0.00125 0.014765625 0.123928325831
518 1 -0.020671875 -0.00125 0.015946875 0.0243767756543
519 1 -0.020671875 -0.00125 0.017128125 0.000126658700522
520 1 -0.020671875 -0.00125 0.018309375 0.00154813293271
521 1 -0.020671875 -0.00125 0.019490625 0.000126658700522
522 1 -0.020671875 -0.00125 0.020671875 0.000126658700522
523 1 -0.020671875 -0.00125 0.021853125 0.0138696939255
524 1 -0.020671875 -0.00125 0.023034375 0.0138696939255
525 1 -0.020671875 -0.00125 0.024215625 0.01386971523
526 1 -0.020671875 -0.00125 0.025396875 1.74019667629e-11
527 1 -0.020671875 -0.00125 0.026578125 0.0
528 1 -0.020671875 -0.00125 0.027759375 0.0
529 1 -0.020671875 -0.00125 0.028940625 0.0
530 1 -0.020671875 -0.00125 0.030121875 0.0
531 1 -0.019490625 -0.00125 -0.031303125 2.66892347814e-17
532 1 -0.019490625 -0.00125 -0.030121875 0.0
533 1 -0.019490625 -0.00125 -0.028940625 0.0
534 1 -0.019490625 -0.00125 -0.027759375 1.28754471296e-08
535 1 -0.019490625 -0.00125 -0.026578125 0.00701009688725
536 1 -0.019490625 -0.00125 -0.025396875 0.0138696939255
537 1 -0.019490625 -0.00125 -0.024215625 0.0293069007767
538 1 -0.019490625 -0.00125 -0.023034375 0.0207856853608
539 1 -0.019490625 -0.00125 -0.021853125 0.0085515641959
540 1 -0.019490625 -0.00125 -0.020671875 0.000126658700522
541 1 -0.019490625 -0.00125 -0.019490625 0.00757992457646
542 1 -0.019490625 -0.00125 -0.018309375 0.119202686097
543 1 -0.019490625 -0.00125 -0.017128125 0.456366823398
544 1 -0.019490625 -0.00125 -0.015946875 0.095575355231
545 1 -0.019490625 -0.00125 -0.014765625 0.0335974296664
546 1 -0.019490625 -0.00125 -0.013584375 0.00855158002733
547 1 -0.019490625 -0.00125 -0.012403125 0.000741931199387
548 1 -0.019490625 -0.00125 -0.011221875 0.000126657322377
549 1 -0.019490625 -0.00125 -0.010040625 0.000126657322377
550 1 -0.019490625 -0.00125 -0.008859375 0.00037578590857
551 1 -0.019490625 -0.00125 -0.007678125 0.00855160641309
552 1 -0.019490625 -0.00125 -0.006496875 0.167516386218
553 1 -0.019490625 -0.00125 -0.005315625 0.10266435538
554 1 -0.019490625 -0.00125 -0.004134375 0.0698874848889
555 1 -0.019490625 -0.00125 -0.002953125 0.104463029938
556 1 -0.019490625 -0.00125 -0.001771875 0.00855160641309
557 1 -0.019490625 -0.00125 -0.000590625 0.000535657991014
558 1 -0.019490625 -0.00125 0.000590625 0.00188914836156
559 1 -0.019490625 -0.00125 0.001771875 0.00855158002733
560 1 -0.019490625 -0.00125 0.002953125 0.0122342535007
561 1 -0.019490625 -0.00125 0.004134375 0.00474645121499
562 1 -0.019490625 -0.00125 0.005315625 0.00987189222788
563 1 -0.019490625 -0.00125 0.006496875 1.05576351831e-06
564 1 -0.019490625 -0.00125 0.007678125 3.07878012444e-05
565 1 -0.019490625 -0.00125 0.008859375 0.000126657322377
566 1 -0.019490625 -0.00125 0.010040625 1.28754471296e-08
567 1 -0.019490625 -0.00125 0.011221875 2.79378975481e-22
568 1 -0.019490625 -0.00125 0.012403125 0.154307310461
569 1 -0.019490625 -0.00125 0.013584375 0.186171540908
570 1 -0.019490625 -0.00125 0.014765625 0.21372123369
571 1 -0.019490625 -0.00125 0.015946875 0.0762228548539
572 1 -0.019490625 -0.00125 0.017128125 0.000535662176186
573 1 -0.019490625 -0.00125 0.018309375 0.00565998798415
574 1 -0.019490625 -0.00125 0.019490625 0.00316006592162
575 1 -0.019490625 -0.00125 0.020671875 0.0138697578391
576 1 -0.019490625 -0.00125 0.021853125 0.119202922022
577 1 -0.019490625 -0.00125 0.023034375 0.095575355231