ITEM: TIMESTEP
0
ITEM: NUMBER OF ATOMS
3080
ITEM: BOX BOUNDS ss ss ss
-3.7007399999999996e-02 3.7007399999999996e-02
-2.0002499999999999e-03 2.5000000000000004e-07
-3.7007399999999996e-02 3.7007399999999996e-02
ITEM: ATOMS id type x y z c_1
0 1 -0.037209375 -0.00125 -0.000590625 1.0
1 1 -0.036028125 -0.00125 -0.007678125 0.000455413315469
2 1 -0.036028125 -0.00125 -0.006496875 0.0
3 1 -0.036028125 -0.00125 -0.005315625 0.0
4 1 -0.036028125 -0.00125 -0.004134375 0.0
5 1 -0.036028125 -0.00125 -0.002953125 0.0
6 1 -0.036028125 -0.00125 -0.001771875 0.226627684957
7 1 -0.036028125 -0.00125 -0.000590625 0.182529172436
8 1 -0.036028125 -0.00125 0.000590625 0.0155974655734
9 1 -0.036028125 -0.00125 0.001771875 0.226627684957
10 1 -0.036028125 -0.00125 0.002953125 4.42606186288e-05
11 1 -0.036028125 -0.00125 0.004134375 0.0
12 1 -0.036028125 -0.00125 0.005315625 0.0
13 1 -0.036028125 -0.00125 0.006496875 0.0
14 1 -0.036028125 -0.00125 0.007678125 0.0
15 1 -0.034846875 -0.00125 -0.011221875 0.00920066229086
16 1 -0.034846875 -0.00125 -0.010040625 4.42606186288e-05
17 1 -0.034846875 -0.00125 -0.008859375 0.182529172436
18 1 -0.034846875 -0.00125 -0.007678125 0.0151197556124
19 1 -0.034846875 -0.00125 -0.006496875 0.0
20 1 -0.034846875 -0.00125 -0.005315625 0.0
21 1 -0.034846875 -0.00125 -0.004134375 0.0
22 1 -0.034846875 -0.00125 -0.002953125 0.0
23 1 -0.034846875 -0.00125 -0.001771875 0.0138696939255
24 1 -0.034846875 -0.00125 -0.000590625 0.292342717184
25 1 -0.034846875 -0.00125 0.000590625 0.0267810196531
26 1 -0.034846875 -0.00125 0.001771875 0.0107214510125
27 1 -0.034846875 -0.00125 0.002953125 0.00474644221021
28 1 -0.034846875 -0.00125 0.004134375 0.0
29 1 -0.034846875 -0.00125 0.005315625 0.0
30 1 -0.034846875 -0.00125 0.006496875 0.0
31 1 -0.034846875 -0.00125 0.007678125 0.0
32 1 -0.034846875 -0.00125 0.008859375 0.0
33 1 -0.034846875 -0.00125 0.010040625 0.0
34 1 -0.034846875 -0.00125 0.011221875 0.0
35 1 -0.033665625 -0.00125 -0.013584375 0.0
36 1 -0.033665625 -0.00125 -0.012403125 0.103819694314
37 1 -0.033665625 -0.00125 -0.011221875 0.00713501987779
38 1 -0.033665625 -0.00125 -0.010040625 0.0381872649833
39 1 -0.033665625 -0.00125 -0.008859375 0.114532075754
40 1 -0.033665625 -0.00125 -0.007678125 0.00154812961495
41 1 -0.033665625 -0.00125 -0.006496875 0.0
42 1 -0.033665625 -0.00125 -0.005315625 0.0
43 1 -0.033665625 -0.00125 -0.004134375 0.0
44 1 -0.033665625 -0.00125 -0.002953125 0.0
45 1 -0.033665625 -0.00125 -0.001771875 1.74019667629e-11
46 1 -0.033665625 -0.00125 -0.000590625 0.292342717184
47 1 -0.033665625 -0.00125 0.000590625 0.128706889468
48 1 -0.033665625 -0.00125 0.001771875 0.00154813293271
49 1 -0.033665625 -0.00125 0.002953125 0.0
50 1 -0.033665625 -0.00125 0.004134375 0.0
51 1 -0.033665625 -0.00125 0.005315625 0.0
52 1 -0.033665625 -0.00125 0.006496875 0.0
53 1 -0.033665625 -0.00125 0.007678125 0.0
54 1 -0.033665625 -0.00125 0.008859375 0.0
55 1 -0.033665625 -0.00125 0.010040625 0.0
56 1 -0.033665625 -0.00125 0.011221875 0.0
57 1 -0.033665625 -0.00125 0.012403125 0.0
58 1 -0.033665625 -0.00125 0.013584375 0.0
59 1 -0.032484375 -0.00125 -0.018309375 0.0
60 1 -0.032484375 -0.00125 -0.017128125 0.00106278235535
61 1 -0.032484375 -0.00125 -0.015946875 0.391519823201
62 1 -0.032484375 -0.00125 -0.014765625 0.15255544026
63 1 -0.032484375 -0.00125 -0.013584375 9.25291560019e-26
64 1 -0.032484375 -0.00125 -0.012403125 1.74014005978e-11
65 1 -0.032484375 -0.00125 -0.011221875 1.77729209249e-06
66 1 -0.032484375 -0.00125 -0.010040625 0.00855160641309
67 1 -0.032484375 -0.00125 -0.008859375 0.0762228717045
68 1 -0.032484375 -0.00125 -0.007678125 0.00855158002733
69 1 -0.032484375 -0.00125 -0.006496875 2.79378975481e-22
70 1 -0.032484375 -0.00125 -0.005315625 0.0
71 1 -0.032484375 -0.00125 -0.004134375 0.0
72 1 -0.032484375 -0.00125 -0.002953125 0.0
73 1 -0.032484375 -0.00125 -0.001771875 1.77731074088e-06
74 1 -0.032484375 -0.00125 -0.000590625 0.24398468453
75 1 -0.032484375 -0.00125 0.000590625 0.275224382683
76 1 -0.032484375 -0.00125 0.001771875 0.0187026692579
77 1 -0.032484375 -0.00125 0.002953125 1.60797611259e-09
78 1 -0.032484375 -0.00125 0.004134375 0.0
79 1 -0.032484375 -0.00125 0.005315625 0.0
80 1 -0.032484375 -0.00125 0.006496875 0.0
81 1 -0.032484375 -0.00125 0.007678125 0.0
82 1 -0.032484375 -0.00125 0.008859375 0.0
83 1 -0.032484375 -0.00125 0.010040625 0.0
84 1 -0.032484375 -0.00125 0.011221875 0.0
85 1 -0.032484375 -0.00125 0.012403125 0.0
86 1 -0.032484375 -0.00125 0.013584375 0.0
87 1 -0.032484375 -0.00125 0.014765625 2.79378975481e-22
88 1 -0.032484375 -0.00125 0.015946875 0.0606740107323
89 1 -0.032484375 -0.00125 0.017128125 0.320687946562
90 1 -0.032484375 -0.00125 0.018309375 0.0
91 1 -0.031303125 -0.00125 -0.019490625 0.0
92 1 -0.031303125 -0.00125 -0.018309375 0.0
93 1 -0.031303125 -0.00125 -0.017128125 1.74019667629e-11
94 1 -0.031303125 -0.00125 -0.015946875 0.361325055821
95 1 -0.031303125 -0.00125 -0.014765625 0.186171540908
96 1 -0.031303125 -0.00125 -0.013584375 2.79378975481e-22
97 1 -0.031303125 -0.00125 -0.012403125 0.0
98 1 -0.031303125 -0.00125 -0.011221875 0.0
99 1 -0.031303125 -0.00125 -0.010040625 4.52220221462e-06
100 1 -0.031303125 -0.00125 -0.008859375 6.01557630165e-07
101 1 -0.031303125 -0.00125 -0.007678125 0.0
102 1 -0.031303125 -0.00125 -0.006496875 0.0
103 1 -0.031303125 -0.00125 -0.005315625 0.0
104 1 -0.031303125 -0.00125 -0.004134375 1.74019667629e-11
105 1 -0.031303125 -0.00125 -0.002953125 1.74019667629e-11
106 1 -0.031303125 -0.00125 -0.001771875 0.0138696939255
107 1 -0.031303125 -0.00125 -0.000590625 0.307306227826
108 1 -0.031303125 -0.00125 0.000590625 0.0249425555034
109 1 -0.031303125 -0.00125 0.001771875 0.00474645121499
110 1 -0.031303125 -0.00125 0.002953125 3.70458005324e-08
111 1 -0.031303125 -0.00125 0.004134375 0.0
112 1 -0.031303125 -0.00125 0.005315625 0.0
113 1 -0.031303125 -0.00125 0.006496875 0.0
114 1 -0.031303125 -0.00125 0.007678125 0.0
115 1 -0.031303125 -0.00125 0.008859375 0.0
116 1 -0.031303125 -0.00125 0.010040625 0.0
117 1 -0.031303125 -0.00125 0.011221875 0.0
118 1 -0.031303125 -0.00125 0.012403125 0.0
119 1 -0.031303125 -0.00125 0.013584375 0.0
120 1 -0.031303125 -0.00125 0.014765625 0.00154812961495
121 1 -0.031303125 -0.00125 0.015946875 0.159358746116
122 1 -0.031303125 -0.00125 0.017128125 0.114532075754
123 1 -0.031303125 -0.00125 0.018309375 0.00147478389665
124 1 -0.031303125 -0.00125 0.019490625 2.66892347814e-17
125 1 -0.030121875 -0.00125 -0.020671875 0.0
126 1 -0.030121875 -0.00125 -0.019490625 0.0
127 1 -0.030121875 -0.00125 -0.018309375 0.0
128 1 -0.030121875 -0.00125 -0.017128125 4.42606186288e-05
129 1 -0.030121875 -0.00125 -0.015946875 0.186171540908
130 1 -0.030121875 -0.00125 -0.014765625 0.186171540908
131 1 -0.030121875 -0.00125 -0.013584375 0.0
132 1 -0.030121875 -0.00125 -0.012403125 0.0
133 1 -0.030121875 -0.00125 -0.011221875 0.0
134 1 -0.030121875 -0.00125 -0.010040625 0.0
135 1 -0.030121875 -0.00125 -0.008859375 0.0
136 1 -0.030121875 -0.00125 -0.007678125 0.0
137 1 -0.030121875 -0.00125 -0.006496875 0.0
138 1 -0.030121875 -0.00125 -0.005315625 0.0
139 1 -0.030121875 -0.00125 -0.004134375 1.22156214432e-15
140 1 -0.030121875 -0.00125 -0.002953125 0.000126658700522
141 1 -0.030121875 -0.00125 -0.001771875 0.0698876476892
142 1 -0.030121875 -0.00125 -0.000590625 0.186171540908
143 1 -0.030121875 -0.00125 0.000590625 0.00987189222788
144 1 -0.030121875 -0.00125 0.001771875 1.22156214432e-15
145 1 -0.030121875 -0.00125 0.002953125 0.0
146 1 -0.030121875 -0.00125 0.004134375 0.0
147 1 -0.030121875 -0.00125 0.005315625 0.0
148 1 -0.030121875 -0.00125 0.006496875 0.0
149 1 -0.030121875 -0.00125 0.007678125 0.0
150 1 -0.030121875 -0.00125 0.008859375 0.0
151 1 -0.030121875 -0.00125 0.010040625 0.0
152 1 -0.030121875 -0.00125 0.011221875 1.74019667629e-11
153 1 -0.030121875 -0.00125 0.012403125 0.0
154 1 -0.030121875 -0.00125 0.013584375 1.74014005978e-11
155 1 -0.030121875 -0.00125 0.014765625 0.00249557400626
156 1 -0.030121875 -0.00125 0.015946875 0.0138696939255
157 1 -0.030121875 -0.00125 0.017128125 0.21372123369
158 1 -0.030121875 -0.00125 0.018309375 0.091233852548
159 1 -0.030121875 -0.00125 0.019490625 3.14925560351e-13
160 1 -0.030121875 -0.00125 0.020671875 2.52587523623e-07
161 1 -0.028940625 -0.00125 -0.021853125 0.000167490860231
162 1 -0.028940625 -0.00125 -0.020671875 0.0
163 1 -0.028940625 -0.00125 -0.019490625 0.0
164 1 -0.028940625 -0.00125 -0.018309375 0.0
165 1 -0.028940625 -0.00125 -0.017128125 0.000126658700522
166 1 -0.028940625 -0.00125 -0.015946875 0.259286106027
167 1 -0.028940625 -0.00125 -0.014765625 0.14929428164
168 1 -0.028940625 -0.00125 -0.013584375 0.0
169 1 -0.028940625 -0.00125 -0.012403125 0.0
170 1 -0.028940625 -0.00125 -0.011221875 0.0
171 1 -0.028940625 -0.00125 -0.010040625 0.0
172 1 -0.028940625 -0.00125 -0.008859375 0.0
173 1 -0.028940625 -0.00125 -0.007678125 0.0
174 1 -0.028940625 -0.00125 -0.006496875 0.0
175 1 -0.028940625 -0.00125 -0.005315625 0.0
176 1 -0.028940625 -0.00125 -0.004134375 0.0
177 1 -0.028940625 -0.00125 -0.002953125 1.22156214432e-15
178 1 -0.028940625 -0.00125 -0.001771875 0.0293069007767
179 1 -0.028940625 -0.00125 -0.000590625 0.0622852495443
180 1 -0.028940625 -0.00125 0.000590625 6.01551003484e-07
181 1 -0.028940625 -0.00125 0.001771875 1.74019667629e-11
182 1 -0.028940625 -0.00125 0.002953125 1.74019667629e-11
183 1 -0.028940625 -0.00125 0.004134375 0.0
184 1 -0.028940625 -0.00125 0.005315625 0.0
185 1 -0.028940625 -0.00125 0.006496875 0.0
186 1 -0.028940625 -0.00125 0.007678125 0.0
187 1 -0.028940625 -0.00125 0.008859375 0.0
188 1 -0.028940625 -0.00125 0.010040625 1.74019667629e-11
189 1 -0.028940625 -0.00125 0.011221875 1.74019667629e-11
190 1 -0.028940625 -0.00125 0.012403125 1.74019667629e-11
191 1 -0.028940625 -0.00125 0.013584375 0.000741931199387
192 1 -0.028940625 -0.00125 0.014765625 0.00249557400626
193 1 -0.028940625 -0.00125 0.015946875 0.0999860491522
194 1 -0.028940625 -0.00125 0.017128125 0.241806863156
195 1 -0.028940625 -0.00125 0.018309375 0.0199375166154
196 1 -0.028940625 -0.00125 0.019490625 0.00037578590857
197 1 -0.028940625 -0.00125 0.020671875 0.00713505279549
198 1 -0.028940625 -0.00125 0.021853125 0.0225621152214
199 1 -0.027759375 -0.00125 -0.024215625 0.0378159779673
200 1 -0.027759375 -0.00125 -0.023034375 0.0648941552085
201 1 -0.027759375 -0.00125 -0.021853125 1.18026294841e-10
202 1 -0.027759375 -0.00125 -0.020671875 0.0
203 1 -0.027759375 -0.00125 -0.019490625 0.0
204 1 -0.027759375 -0.00125 -0.018309375 0.0
205 1 -0.027759375 -0.00125 -0.017128125 1.22156214432e-15
206 1 -0.027759375 -0.00125 -0.015946875 0.14929428164
207 1 -0.027759375 -0.00125 -0.014765625 0.123928325831
208 1 -0.027759375 -0.00125 -0.013584375 0.0
209 1 -0.027759375 -0.00125 -0.012403125 0.0
210 1 -0.027759375 -0.00125 -0.011221875 0.0
211 1 -0.027759375 -0.00125 -0.010040625 0.0
212 1 -0.027759375 -0.00125 -0.008859375 0.0
213 1 -0.027759375 -0.00125 -0.007678125 0.0
214 1 -0.027759375 -0.00125 -0.006496875 0.0
215 1 -0.027759375 -0.00125 -0.005315625 0.0
216 1 -0.027759375 -0.00125 -0.004134375 0.0
217 1 -0.027759375 -0.00125 -0.002953125 6.01557630165e-07
218 1 -0.027759375 -0.00125 -0.001771875 4.42606186288e-05
219 1 -0.027759375 -0.00125 -0.000590625 0.00154812961495
220 1 -0.027759375 -0.00125 0.000590625 0.0116144863694
221 1 -0.027759375 -0.00125 0.001771875 4.42606186288e-05
222 1 -0.027759375 -0.00125 0.002953125 0.000126657572948
223 1 -0.027759375 -0.00125 0.004134375 0.0
224 1 -0.027759375 -0.00125 0.005315625 0.0
225 1 -0.027759375 -0.00125 0.006496875 0.0
226 1 -0.027759375 -0.00125 0.007678125 0.0
227 1 -0.027759375 -0.00125 0.008859375 0.0
228 1 -0.027759375 -0.00125 0.010040625 1.74019667629e-11
229 1 -0.027759375 -0.00125 0.011221875 1.74019667629e-11
230 1 -0.027759375 -0.00125 0.012403125 0.000126657572948
231 1 -0.027759375 -0.00125 0.013584375 0.0187026608024
232 1 -0.027759375 -0.00125 0.014765625 0.00154812961495
233 1 -0.027759375 -0.00125 0.015946875 0.292342717184
234 1 -0.027759375 -0.00125 0.017128125 0.3791971081
235 1 -0.027759375 -0.00125 0.018309375 0.01386971523
236 1 -0.027759375 -0.00125 0.019490625 1.77729209249e-06
237 1 -0.027759375 -0.00125 0.020671875 0.000891017573599
238 1 -0.027759375 -0.00125 0.021853125 0.00713505279549
239 1 -0.027759375 -0.00125 0.023034375 0.00106278235535
240 1 -0.027759375 -0.00125 0.024215625 0.0
241 1 -0.026578125 -0.00125 -0.026578125 0.0
242 1 -0.026578125 -0.00125 -0.025396875 0.000828335693049
243 1 -0.026578125 -0.00125 -0.024215625 0.00332844378266
244 1 -0.026578125 -0.00125 -0.023034375 0.000126658700522
245 1 -0.026578125 -0.00125 -0.021853125 1.28754471296e-08
246 1 -0.026578125 -0.00125 -0.020671875 0.0
247 1 -0.026578125 -0.00125 -0.019490625 0.0
248 1 -0.026578125 -0.00125 -0.018309375 0.0
249 1 -0.026578125 -0.00125 -0.017128125 2.79378975481e-22
250 1 -0.026578125 -0.00125 -0.015946875 0.119202686097
251 1 -0.026578125 -0.00125 -0.014765625 0.286813049125
252 1 -0.026578125 -0.00125 -0.013584375 1.28752206004e-08
253 1 -0.026578125 -0.00125 -0.012403125 0.0
254 1 -0.026578125 -0.00125 -0.011221875 0.0
255 1 -0.026578125 -0.00125 -0.010040625 0.0
256 1 -0.026578125 -0.00125 -0.008859375 0.0
257 1 -0.026578125 -0.00125 -0.007678125 0.0
258 1 -0.026578125 -0.00125 -0.006496875 8.74405003207e-06
259 1 -0.026578125 -0.00125 -0.005315625 0.033597418051
260 1 -0.026578125 -0.00125 -0.004134375 0.0335974296664
261 1 -0.026578125 -0.00125 -0.002953125 0.10266431786
262 1 -0.026578125 -0.00125 -0.001771875 0.0912340507322
263 1 -0.026578125 -0.00125 -0.000590625 0.0622854357979
264 1 -0.026578125 -0.00125 0.000590625 0.0349999191355
265 1 -0.026578125 -0.00125 0.001771875 0.0107213720275
266 1 -0.026578125 -0.00125 0.002953125 0.00474644221021
267 1 -0.026578125 -0.00125 0.004134375 7.02293809892e-08
268 1 -0.026578125 -0.00125 0.005315625 2.79378975481e-22
269 1 -0.026578125 -0.00125 0.006496875 0.0
270 1 -0.026578125 -0.00125 0.007678125 2.79378975481e-22
271 1 -0.026578125 -0.00125 0.008859375 4.52220221462e-06
272 1 -0.026578125 -0.00125 0.010040625 4.52221866893e-06
273 1 -0.026578125 -0.00125 0.011221875 1.74019667629e-11
274 1 -0.026578125 -0.00125 0.012403125 2.79378975481e-22
275 1 -0.026578125 -0.00125 0.013584375 0.0214348985073
276 1 -0.026578125 -0.00125 0.014765625 0.191419064383
277 1 -0.026578125 -0.00125 0.015946875 0.427280035554
278 1 -0.026578125 -0.00125 0.017128125 0.378080020574
279 1 -0.026578125 -0.00125 0.018309375 0.00734858779095
280 1 -0.026578125 -0.00125 0.019490625 7.83323180008e-10
281 1 -0.026578125 -0.00125 0.020671875 0.000535662176186
282 1 -0.026578125 -0.00125 0.021853125 0.00284458418363
283 1 -0.026578125 -0.00125 0.023034375 0.00118682874801
284 1 -0.026578125 -0.00125 0.024215625 3.14925560351e-13
285 1 -0.026578125 -0.00125 0.025396875 0.0
286 1 -0.026578125 -0.00125 0.026578125 0.0
287 1 -0.025396875 -0.00125 -0.026578125 4.75803770454e-08
288 1 -0.025396875 -0.00125 -0.025396875 0.0138696939255
289 1 -0.025396875 -0.00125 -0.024215625 0.0138696939255
290 1 -0.025396875 -0.00125 -0.023034375 0.0138696939255
291 1 -0.025396875 -0.00125 -0.021853125 0.000126658700522
292 1 -0.025396875 -0.00125 -0.020671875 1.74019667629e-11
293 1 -0.025396875 -0.00125 -0.019490625 3.14925560351e-13
294 1 -0.025396875 -0.00125 -0.018309375 1.74019667629e-11
295 1 -0.025396875 -0.00125 -0.017128125 0.0
296 1 -0.025396875 -0.00125 -0.015946875 0.186171540908
297 1 -0.025396875 -0.00125 -0.014765625 0.40155565507
298 1 -0.025396875 -0.00125 -0.013584375 1.5837818957e-05
299 1 -0.025396875 -0.00125 -0.012403125 0.0
300 1 -0.025396875 -0.00125 -0.011221875 0.0
301 1 -0.025396875 -0.00125 -0.010040625 0.0
302 1 -0.025396875 -0.00125 -0.008859375 0.0
303 1 -0.025396875 -0.00125 -0.007678125 1.22156214432e-15
304 1 -0.025396875 -0.00125 -0.006496875 1.40785443464e-30
305 1 -0.025396875 -0.00125 -0.005315625 1.74019667629e-11
306 1 -0.025396875 -0.00125 -0.004134375 0.0
307 1 -0.025396875 -0.00125 -0.002953125 0.0
308 1 -0.025396875 -0.00125 -0.001771875 0.0
309 1 -0.025396875 -0.00125 -0.000590625 3.14925560351e-13
310 1 -0.025396875 -0.00125 0.000590625 6.01557630165e-07
311 1 -0.025396875 -0.00125 0.001771875 0.000126658700522
312 1 -0.025396875 -0.00125 0.002953125 0.000126657572948
313 1 -0.025396875 -0.00125 0.004134375 4.52220221462e-06
314 1 -0.025396875 -0.00125 0.005315625 4.52220221462e-06
315 1 -0.025396875 -0.00125 0.006496875 0.0
316 1 -0.025396875 -0.00125 0.007678125 0.0
317 1 -0.025396875 -0.00125 0.008859375 1.74019667629e-11
318 1 -0.025396875 -0.00125 0.010040625 4.52220221462e-06
319 1 -0.025396875 -0.00125 0.011221875 6.01557630165e-07
320 1 -0.025396875 -0.00125 0.012403125 0.0
321 1 -0.025396875 -0.00125 0.013584375 0.0042484826861
322 1 -0.025396875 -0.00125 0.014765625 0.21372123369
323 1 -0.025396875 -0.00125 0.015946875 0.522376508072
324 1 -0.025396875 -0.00125 0.017128125 0.14929428164
325 1 -0.025396875 -0.00125 0.018309375 6.01557630165e-07
326 1 -0.025396875 -0.00125 0.019490625 3.07879020573e-05
327 1 -0.025396875 -0.00125 0.020671875 0.00154813293271
328 1 -0.025396875 -0.00125 0.021853125 0.000126658700522
329 1 -0.025396875 -0.00125 0.023034375 0.000891023127979
330 1 -0.025396875 -0.00125 0.024215625 4.52220221462e-06
331 1 -0.025396875 -0.00125 0.025396875 0.0
332 1 -0.025396875 -0.00125 0.026578125 0.0
333 1 -0.024215625 -0.00125 -0.027759375 0.0
334 1 -0.024215625 -0.00125 -0.026578125 1.28754471296e-08
335 1 -0.024215625 -0.00125 -0.025396875 0.0138696939255
336 1 -0.024215625 -0.00125 -0.024215625 0.0138696939255
337 1 -0.024215625 -0.00125 -0.023034375 0.0138696939255
338 1 -0.024215625 -0.00125 -0.021853125 0.00154813293271
339 1 -0.024215625 -0.00125 -0.020671875 0.000126658700522
340 1 -0.024215625 -0.00125 -0.019490625 0.00118682874801
341 1 -0.024215625 -0.00125 -0.018309375 0.000126658700522
342 1 -0.024215625 -0.00125 -0.017128125 0.0
343 1 -0.024215625 -0.00125 -0.015946875 0.186171540908
344 1 -0.024215625 -0.00125 -0.014765625 0.649836265644
345 1 -0.024215625 -0.00125 -0.013584375 0.00228020850123
346 1 -0.024215625 -0.00125 -0.012403125 0.0
347 1 -0.024215625 -0.00125 -0.011221875 0.0
348 1 -0.024215625 -0.00125 -0.010040625 0.0
349 1 -0.024215625 -0.00125 -0.008859375 0.0
350 1 -0.024215625 -0.00125 -0.007678125 6.01557630165e-07
351 1 -0.024215625 -0.00125 -0.006496875 1.77729209249e-06
352 1 -0.024215625 -0.00125 -0.005315625 0.000299131636816
353 1 -0.024215625 -0.00125 -0.004134375 6.01557630165e-07
354 1 -0.024215625 -0.00125 -0.002953125 1.74019667629e-11
355 1 -0.024215625 -0.00125 -0.001771875 1.74019667629e-11
356 1 -0.024215625 -0.00125 -0.000590625 0.041204237912
357 1 -0.024215625 -0.00125 0.000590625 0.0324964072365
358 1 -0.024215625 -0.00125 0.001771875 0.0107214510125
359 1 -0.024215625 -0.00125 0.002953125 1.22156214432e-15
360 1 -0.024215625 -0.00125 0.004134375 0.0
361 1 -0.024215625 -0.00125 0.005315625 0.0
362 1 -0.024215625 -0.00125 0.006496875 0.0
363 1 -0.024215625 -0.00125 0.007678125 0.0
364 1 -0.024215625 -0.00125 0.008859375 0.0
365 1 -0.024215625 -0.00125 0.010040625 6.01557630165e-07
366 1 -0.024215625 -0.00125 0.011221875 6.01557630165e-07
367 1 -0.024215625 -0.00125 0.012403125 1.22156214432e-15
368 1 -0.024215625 -0.00125 0.013584375 0.0660411189129
369 1 -0.024215625 -0.00125 0.014765625 0.224469737872
370 1 -0.024215625 -0.00125 0.015946875 0.252716464147
371 1 -0.024215625 -0.00125 0.017128125 0.01386971523
372 1 -0.024215625 -0.00125 0.018309375 0.00154813293271
373 1 -0.024215625 -0.00125 0.019490625 6.01557630165e-07
374 1 -0.024215625 -0.00125 0.020671875 0.000126658700522
375 1 -0.024215625 -0.00125 0.021853125 6.01557630165e-07
376 1 -0.024215625 -0.00125 0.023034375 0.00154813293271
377 1 -0.024215625 -0.00125 0.024215625 0.000126657572948
378 1 -0.024215625 -0.00125 0.025396875 6.01557630165e-07
379 1 -0.024215625 -0.00125 0.026578125 0.0
380 1 -0.024215625 -0.00125 0.027759375 0.0
381 1 -0.023034375 -0.00125 -0.027759375 0.0
382 1 -0.023034375 -0.00125 -0.026578125 1.28754471296e-08
383 1 -0.023034375 -0.00125 -0.025396875 0.00154813293271
384 1 -0.023034375 -0.00125 -0.024215625 0.0138696939255
385 1 -0.023034375 -0.00125 -0.023034375 0.0138696939255
386 1 -0.023034375 -0.00125 -0.021853125 0.0138696939255
387 1 -0.023034375 -0.00125 -0.020671875 0.00474645121499
388 1 -0.023034375 -0.00125 -0.019490625 0.0085515641959
389 1 -0.023034375 -0.00125 -0.018309375 0.000126658700522
390 1 -0.023034375 -0.00125 -0.017128125 6.01557630165e-07
391 1 -0.023034375 -0.00125 -0.015946875 0.0443322841124
392 1 -0.023034375 -0.00125 -0.014765625 0.872253152227
393 1 -0.023034375 -0.00125 -0.013584375 0.00474644221021
394 1 -0.023034375 -0.00125 -0.012403125 6.01557630165e-07
395 1 -0.023034375 -0.00125 -0.011221875 0.0107214510125
396 1 -0.023034375 -0.00125 -0.010040625 0.0381872649833
397 1 -0.023034375 -0.00125 -0.008859375 0.0622852495443
398 1 -0.023034375 -0.00125 -0.007678125 0.0912339065983
399 1 -0.023034375 -0.00125 -0.006496875 0.136454910525
400 1 -0.023034375 -0.00125 -0.005315625 0.186171540908
401 1 -0.023034375 -0.00125 -0.004134375 0.091233852548
402 1 -0.023034375 -0.00125 -0.002953125 0.0698876476892
403 1 -0.023034375 -0.00125 -0.001771875 0.0443322841124
404 1 -0.023034375 -0.00125 -0.000590625 0.0827702567622
405 1 -0.023034375 -0.00125 0.000590625 0.149294783073
406 1 -0.023034375 -0.00125 0.001771875 0.07461867463
407 1 -0.023034375 -0.00125 0.002953125 4.42606186288e-05
408 1 -0.023034375 -0.00125 0.004134375 1.22156214432e-15
409 1 -0.023034375 -0.00125 0.005315625 0.0
410 1 -0.023034375 -0.00125 0.006496875 0.0
411 1 -0.023034375 -0.00125 0.007678125 1.74019667629e-11
412 1 -0.023034375 -0.00125 0.008859375 1.74019667629e-11
413 1 -0.023034375 -0.00125 0.010040625 0.000126658700522
414 1 -0.023034375 -0.00125 0.011221875 0.0622852805866
415 1 -0.023034375 -0.00125 0.012403125 0.129668570718
416 1 -0.023034375 -0.00125 0.013584375 0.295664152964
417 1 -0.023034375 -0.00125 0.014765625 0.470910937833
418 1 -0.023034375 -0.00125 0.015946875 0.281290216208
419 1 -0.023034375 -0.00125 0.017128125 0.0443322841124
420 1 -0.023034375 -0.00125 0.018309375 0.000126658700522
421 1 -0.023034375 -0.00125 0.019490625 0.00037578590857
422 1 -0.023034375 -0.00125 0.020671875 0.00154813293271
423 1 -0.023034375 -0.00125 0.021853125 6.01557630165e-07
424 1 -0.023034375 -0.00125 0.023034375 0.00154813293271
425 1 -0.023034375 -0.00125 0.024215625 0.00154813293271
426 1 -0.023034375 -0.00125 0.025396875 0.000126658700522
427 1 -0.023034375 -0.00125 0.026578125 1.40785443464e-30
428 1 -0.023034375 -0.00125 0.027759375 0.0
429 1 -0.021853125 -0.00125 -0.028940625 0.0
430 1 -0.021853125 -0.00125 -0.027759375 0.0
431 1 -0.021853125 -0.00125 -0.026578125 2.79378975481e-22
432 1 -0.021853125 -0.00125 -0.025396875 0.000126658700522
433 1 -0.021853125 -0.00125 -0.024215625 0.0293069007767
434 1 -0.021853125 -0.00125 -0.023034375 0.0138696939255
435 1 -0.021853125 -0.00125 -0.021853125 0.0138696939255
436 1 -0.021853125 -0.00125 -0.020671875 0.00474645121499
437 1 -0.021853125 -0.00125 -0.019490625 0.00565998798415
438 1 -0.021853125 -0.00125 -0.018309375 0.00474645121499
439 1 -0.021853125 -0.00125 -0.017128125 0.000126658700522
440 1 -0.021853125 -0.00125 -0.015946875 0.000891017573599
441 1 -0.021853125 -0.00125 -0.014765625 0.408265146751
442 1 -0.021853125 -0.00125 -0.013584375 0.0243766776135
443 1 -0.021853125 -0.00125 -0.012403125 0.00474644221021
444 1 -0.021853125 -0.00125 -0.011221875 0.139391385346
445 1 -0.021853125 -0.00125 -0.010040625 0.186171540908
446 1 -0.021853125 -0.00125 -0.008859375 0.292342717184
447 1 -0.021853125 -0.00125 -0.007678125 0.281290216208
448 1 -0.021853125 -0.00125 -0.006496875 0.346817124959
449 1 -0.021853125 -0.00125 -0.005315625 0.21372123369
450 1 -0.021853125 -0.00125 -0.004134375 0.230952152116
451 1 -0.021853125 -0.00125 -0.002953125 0.175758893257
452 1 -0.021853125 -0.00125 -0.001771875 0.235286796702
453 1 -0.021853125 -0.00125 -0.000590625 0.00565999405337
454 1 -0.021853125 -0.00125 0.000590625 0.0243767952624
455 1 -0.021853125 -0.00125 0.001771875 0.31008152194
456 1 -0.021853125 -0.00125 0.002953125 0.159358746116
457 1 -0.021853125 -0.00125 0.004134375 0.01386971523
458 1 -0.021853125 -0.00125 0.005315625 4.52227625942e-06
459 1 -0.021853125 -0.00125 0.006496875 0.00565998798415
460 1 -0.021853125 -0.00125 0.007678125 0.0243767756543
461 1 -0.021853125 -0.00125 0.008859375 0.0293069007767
462 1 -0.021853125 -0.00125 0.010040625 0.00474645121499
463 1 -0.021853125 -0.00125 0.011221875 0.114532075754
464 1 -0.021853125 -0.00125 0.012403125 0.569364093285
465 1 -0.021853125 -0.00125 0.013584375 0.540276619563
466 1 -0.021853125 -0.00125 0.014765625 0.224469737872
467 1 -0.021853125 -0.00125 0.015946875 0.321195978177
468 1 -0.021853125 -0.00125 0.017128125 0.0698876476892
469 1 -0.021853125 -0.00125 0.018309375 0.000126658700522
470 1 -0.021853125 -0.00125 0.019490625 0.00474645121499
471 1 -0.021853125 -0.00125 0.020671875 0.00474645121499
472 1 -0.021853125 -0.00125 0.021853125 0.000126658700522
473 1 -0.021853125 -0.00125 0.023034375 0.000126658700522
474 1 -0.021853125 -0.00125 0.024215625 0.000126658700522
475 1 -0.021853125 -0.00125 0.025396875 0.00154813293271
476 1 -0.021853125 -0.00125 0.026578125 3.14925560351e-13
477 1 -0.021853125 -0.00125 0.027759375 0.0
478 1 -0.021853125 -0.00125 0.028940625 0.00466864259094
479 1 -0.020671875 -0.00125 -0.030121875 0.0
480 1 -0.020671875 -0.00125 -0.028940625 0.0
481 1 -0.020671875 -0.00125 -0.027759375 0.0
482 1 -0.020671875 -0.00125 -0.026578125 0.0
483 1 -0.020671875 -0.00125 -0.025396875 0.000126658700522
484 1 -0.020671875 -0.00125 -0.024215625 0.0138696939255
485 1 -0.020671875 -0.00125 -0.023034375 0.0138696939255
486 1 -0.020671875 -0.00125 -0.021853125 0.0138696939255
487 1 -0.020671875 -0.00125 -0.020671875 0.00154813293271
488 1 -0.020671875 -0.00125 -0.019490625 0.0138696939255
489 1 -0.020671875 -0.00125 -0.018309375 0.0138696939255
490 1 -0.020671875 -0.00125 -0.017128125 0.000126658700522
491 1 -0.020671875 -0.00125 -0.015946875 0.000891023127979
492 1 -0.020671875 -0.00125 -0.014765625 0.27026908404
493 1 -0.020671875 -0.00125 -0.013584375 0.0308801942381
494 1 -0.020671875 -0.00125 -0.012403125 0.00668182974929
495 1 -0.020671875 -0.00125 -0.011221875 0.01386971523
496 1 -0.020671875 -0.00125 -0.010040625 0.00668184101894
497 1 -0.020671875 -0.00125 -0.008859375 0.0243767952624
498 1 -0.020671875 -0.00125 -0.007678125 0.0509111013046
499 1 -0.020671875 -0.00125 -0.006496875 0.0564721545756
500 1 -0.020671875 -0.00125 -0.005315625 0.0243767756543
501 1 -0.020671875 -0.00125 -0.004134375 0.0293069007767
502 1 -0.020671875 -0.00125 -0.002953125 0.114532075754
503 1 -0.020671875 -0.00125 -0.001771875 0.091233852548
504 1 -0.020671875 -0.00125 -0.000590625 0.0912338705648
505 1 -0.020671875 -0.00125 0.000590625 0.14929428164
506 1 -0.020671875 -0.00125 0.001771875 0.448535349767
507 1 -0.020671875 -0.00125 0.002953125 0.224469737872
508 1 -0.020671875 -0.00125 0.004134375 0.186171540908
509 1 -0.020671875 -0.00125 0.005315625 0.123928325831
510 1 -0.020671875 -0.00125 0.006496875 0.219086517041
511 1 -0.020671875 -0.00125 0.007678125 0.281290216208
512 1 -0.020671875 -0.00125 0.008859375 0.203051971158
513 1 -0.020671875 -0.00125 0.010040625 0.00154813293271
514 1 -0.020671875 -0.00125 0.011221875 0.0443322841124
515 1 -0.020671875 -0.00125 0.012403125 0.779838391573
516 1 -0.020671875 -0.00125 0.013584375 0.430636140753
517 1 -0.020671875 -0.00125 0.014765625 0.159358746116
518 1 -0.020671875 -0.00125 0.015946875 0.252716464147
519 1 -0.020671875 -0.00125 0.017128125 0.0138696939255
520 1 -0.020671875 -0.00125 0.018309375 0.00154813293271
521 1 -0.020671875 -0.00125 0.019490625 0.0138696939255
522 1 -0.020671875 -0.00125 0.020671875 0.0138696939255
523 1 -0.020671875 -0.00125 0.021853125 0.00474645121499
524 1 -0.020671875 -0.00125 0.023034375 0.000891023127979
525 1 -0.020671875 -0.00125 0.024215625 0.00474645121499
526 1 -0.020671875 -0.00125 0.025396875 0.000891023127979
527 1 -0.020671875 -0.00125 0.026578125 1.28754471296e-08
528 1 -0.020671875 -0.00125 0.027759375 0.0
529 1 -0.020671875 -0.00125 0.028940625 0.0
530 1 -0.020671875 -0.00125 0.030121875 0.00466864259094
531 1 -0.019490625 -0.00125 -0.031303125 0.0
532 1 -0.019490625 -0.00125 -0.030121875 0.0
533 1 -0.019490625 -0.00125 -0.028940625 0.0
534 1 -0.019490625 -0.00125 -0.027759375 0.0
535 1 -0.019490625 -0.00125 -0.026578125 4.37036150708e-15
536 1 -0.019490625 -0.00125 -0.025396875 1.28754471296e-08
537 1 -0.019490625 -0.00125 -0.024215625 0.01386971523
538 1 -0.019490625 -0.00125 -0.023034375 0.0802910104399
539 1 -0.019490625 -0.00125 -0.021853125 0.066041103006
540 1 -0.019490625 -0.00125 -0.020671875 0.0187026692579
541 1 -0.019490625 -0.00125 -0.019490625 0.00855158530448
542 1 -0.019490625 -0.00125 -0.018309375 0.0138696939255
543 1 -0.019490625 -0.00125 -0.017128125 0.00565998798415
544 1 -0.019490625 -0.00125 -0.015946875 0.00037578707255
545 1 -0.019490625 -0.00125 -0.014765625 0.154307352577
546 1 -0.019490625 -0.00125 -0.013584375 0.302313863861
547 1 -0.019490625 -0.00125 -0.012403125 5.56342681978e-05
548 1 -0.019490625 -0.00125 -0.011221875 0.000299133347856
549 1 -0.019490625 -0.00125 -0.010040625 0.00249557865471
550 1 -0.019490625 -0.00125 -0.008859375 0.00349873524201
551 1 -0.019490625 -0.00125 -0.007678125 0.00474644221021
552 1 -0.019490625 -0.00125 -0.006496875 0.00175558736526
553 1 -0.019490625 -0.00125 -0.005315625 0.0207856943371
554 1 -0.019490625 -0.00125 -0.004134375 0.0113118977017
555 1 -0.019490625 -0.00125 -0.002953125 0.06007667973
556 1 -0.019490625 -0.00125 -0.001771875 0.133534957453
557 1 -0.019490625 -0.00125 -0.000590625 0.141358284812
558 1 -0.019490625 -0.00125 0.000590625 0.213721502584
559 1 -0.019490625 -0.00125 0.001771875 0.0999862723017
560 1 -0.019490625 -0.00125 0.002953125 1.58378774223e-05