ITEM: TIMESTEP
0
ITEM: NUMBER OF ATOMS
3080
ITEM: BOX BOUNDS ss ss ss
-3.7007399999999996e-02 3.7007399999999996e-02
-2.0002499999999999e-03 2.5000000000000004e-07
-3.7007399999999996e-02 3.7007399999999996e-02
ITEM: ATOMS id type x y z c_1
0 1 -0.037209375 -0.00125 -0.000590625 0.0154732620181
1 1 -0.036028125 -0.00125 -0.007678125 0.0
2 1 -0.036028125 -0.00125 -0.006496875 3.70458005324e-08
3 1 -0.036028125 -0.00125 -0.005315625 0.0878124945944
4 1 -0.036028125 -0.00125 -0.004134375 0.0482287944365
5 1 -0.036028125 -0.00125 -0.002953125 0.0125514868443
6 1 -0.036028125 -0.00125 -0.001771875 0.301204661862
7 1 -0.036028125 -0.00125 -0.000590625 0.50611981934
8 1 -0.036028125 -0.00125 0.000590625 0.545580759084
9 1 -0.036028125 -0.00125 0.001771875 0.301204661862
10 1 -0.036028125 -0.00125 0.002953125 0.0125514868443
11 1 -0.036028125 -0.00125 0.004134375 0.0482287944365
12 1 -0.036028125 -0.00125 0.005315625 0.0878124945944
13 1 -0.036028125 -0.00125 0.006496875 3.70458005324e-08
14 1 -0.036028125 -0.00125 0.007678125 0.0
15 1 -0.034846875 -0.00125 -0.011221875 0.000455413315469
16 1 -0.034846875 -0.00125 -0.010040625 0.226627684957
17 1 -0.034846875 -0.00125 -0.008859375 0.182529172436
18 1 -0.034846875 -0.00125 -0.007678125 0.0
19 1 -0.034846875 -0.00125 -0.006496875 0.0
20 1 -0.034846875 -0.00125 -0.005315625 0.00154812961495
21 1 -0.034846875 -0.00125 -0.004134375 0.00668182974929
22 1 -0.034846875 -0.00125 -0.002953125 0.0293069007767
23 1 -0.034846875 -0.00125 -0.001771875 0.133535038668
24 1 -0.034846875 -0.00125 -0.000590625 0.562092182029
25 1 -0.034846875 -0.00125 0.000590625 0.671681448485
26 1 -0.034846875 -0.00125 0.001771875 0.133535038668
27 1 -0.034846875 -0.00125 0.002953125 0.0293069007767
28 1 -0.034846875 -0.00125 0.004134375 0.00668182974929
29 1 -0.034846875 -0.00125 0.005315625 0.00154812961495
30 1 -0.034846875 -0.00125 0.006496875 0.0
31 1 -0.034846875 -0.00125 0.007678125 0.0
32 1 -0.034846875 -0.00125 0.008859375 0.182529172436
33 1 -0.034846875 -0.00125 0.010040625 0.226627684957
34 1 -0.034846875 -0.00125 0.011221875 0.000455413315469
35 1 -0.033665625 -0.00125 -0.013584375 5.72529236729e-05
36 1 -0.033665625 -0.00125 -0.012403125 1.63558782507e-05
37 1 -0.033665625 -0.00125 -0.011221875 0.0
38 1 -0.033665625 -0.00125 -0.010040625 0.186171540908
39 1 -0.033665625 -0.00125 -0.008859375 0.186171540908
40 1 -0.033665625 -0.00125 -0.007678125 0.0
41 1 -0.033665625 -0.00125 -0.006496875 0.0
42 1 -0.033665625 -0.00125 -0.005315625 1.74019667629e-11
43 1 -0.033665625 -0.00125 -0.004134375 0.000891017573599
44 1 -0.033665625 -0.00125 -0.002953125 0.196692761217
45 1 -0.033665625 -0.00125 -0.001771875 0.14929428164
46 1 -0.033665625 -0.00125 -0.000590625 0.598444906404
47 1 -0.033665625 -0.00125 0.000590625 0.678804021823
48 1 -0.033665625 -0.00125 0.001771875 0.14929428164
49 1 -0.033665625 -0.00125 0.002953125 0.196692761217
50 1 -0.033665625 -0.00125 0.004134375 0.000891017573599
51 1 -0.033665625 -0.00125 0.005315625 1.74019667629e-11
52 1 -0.033665625 -0.00125 0.006496875 0.0
53 1 -0.033665625 -0.00125 0.007678125 0.0
54 1 -0.033665625 -0.00125 0.008859375 0.186171540908
55 1 -0.033665625 -0.00125 0.010040625 0.186171540908
56 1 -0.033665625 -0.00125 0.011221875 0.0
57 1 -0.033665625 -0.00125 0.012403125 1.63558782507e-05
58 1 -0.033665625 -0.00125 0.013584375 5.72529236729e-05
59 1 -0.032484375 -0.00125 -0.018309375 0.0
60 1 -0.032484375 -0.00125 -0.017128125 0.00106278235535
61 1 -0.032484375 -0.00125 -0.015946875 0.115402149652
62 1 -0.032484375 -0.00125 -0.014765625 0.32262634107
63 1 -0.032484375 -0.00125 -0.013584375 0.109030433751
64 1 -0.032484375 -0.00125 -0.012403125 0.0138696939255
65 1 -0.032484375 -0.00125 -0.011221875 0.000535659512892
66 1 -0.032484375 -0.00125 -0.010040625 0.346817124959
67 1 -0.032484375 -0.00125 -0.008859375 0.205179062488
68 1 -0.032484375 -0.00125 -0.007678125 0.0
69 1 -0.032484375 -0.00125 -0.006496875 0.0
70 1 -0.032484375 -0.00125 -0.005315625 1.28752206004e-08
71 1 -0.032484375 -0.00125 -0.004134375 0.0443322441605
72 1 -0.032484375 -0.00125 -0.002953125 0.252716967449
73 1 -0.032484375 -0.00125 -0.001771875 0.335669010033
74 1 -0.032484375 -0.00125 -0.000590625 0.326314391409
75 1 -0.032484375 -0.00125 0.000590625 0.350721502333
76 1 -0.032484375 -0.00125 0.001771875 0.335669010033
77 1 -0.032484375 -0.00125 0.002953125 0.252716967449
78 1 -0.032484375 -0.00125 0.004134375 0.0443322441605
79 1 -0.032484375 -0.00125 0.005315625 1.28752206004e-08
80 1 -0.032484375 -0.00125 0.006496875 0.0
81 1 -0.032484375 -0.00125 0.007678125 0.0
82 1 -0.032484375 -0.00125 0.008859375 0.205179062488
83 1 -0.032484375 -0.00125 0.010040625 0.346817124959
84 1 -0.032484375 -0.00125 0.011221875 0.000535659512892
85 1 -0.032484375 -0.00125 0.012403125 0.0138696939255
86 1 -0.032484375 -0.00125 0.013584375 0.109030433751
87 1 -0.032484375 -0.00125 0.014765625 0.32262634107
88 1 -0.032484375 -0.00125 0.015946875 0.115402149652
89 1 -0.032484375 -0.00125 0.017128125 0.00106278235535
90 1 -0.032484375 -0.00125 0.018309375 0.0
91 1 -0.031303125 -0.00125 -0.019490625 0.0
92 1 -0.031303125 -0.00125 -0.018309375 0.0
93 1 -0.031303125 -0.00125 -0.017128125 0.0
94 1 -0.031303125 -0.00125 -0.015946875 1.74019667629e-11
95 1 -0.031303125 -0.00125 -0.014765625 0.123928325831
96 1 -0.031303125 -0.00125 -0.013584375 0.425042808253
97 1 -0.031303125 -0.00125 -0.012403125 0.0243767952624
98 1 -0.031303125 -0.00125 -0.011221875 0.430635859907
99 1 -0.031303125 -0.00125 -0.010040625 0.470910984646
100 1 -0.031303125 -0.00125 -0.008859375 0.00154813293271
101 1 -0.031303125 -0.00125 -0.007678125 0.0
102 1 -0.031303125 -0.00125 -0.006496875 2.79378975481e-22
103 1 -0.031303125 -0.00125 -0.005315625 0.00668182974929
104 1 -0.031303125 -0.00125 -0.004134375 0.0999860491522
105 1 -0.031303125 -0.00125 -0.002953125 0.196692230435
106 1 -0.031303125 -0.00125 -0.001771875 0.453010895051
107 1 -0.031303125 -0.00125 -0.000590625 0.372493218055
108 1 -0.031303125 -0.00125 0.000590625 0.365791369792
109 1 -0.031303125 -0.00125 0.001771875 0.453010895051
110 1 -0.031303125 -0.00125 0.002953125 0.196692230435
111 1 -0.031303125 -0.00125 0.004134375 0.0999860491522
112 1 -0.031303125 -0.00125 0.005315625 0.00668182974929
113 1 -0.031303125 -0.00125 0.006496875 2.79378975481e-22
114 1 -0.031303125 -0.00125 0.007678125 0.0
115 1 -0.031303125 -0.00125 0.008859375 0.00154813293271
116 1 -0.031303125 -0.00125 0.010040625 0.470910984646
117 1 -0.031303125 -0.00125 0.011221875 0.430635859907
118 1 -0.031303125 -0.00125 0.012403125 0.0243767952624
119 1 -0.031303125 -0.00125 0.013584375 0.425042808253
120 1 -0.031303125 -0.00125 0.014765625 0.123928325831
121 1 -0.031303125 -0.00125 0.015946875 1.74019667629e-11
122 1 -0.031303125 -0.00125 0.017128125 0.0
123 1 -0.031303125 -0.00125 0.018309375 0.0
124 1 -0.031303125 -0.00125 0.019490625 0.0
125 1 -0.030121875 -0.00125 -0.020671875 0.00466864259094
126 1 -0.030121875 -0.00125 -0.019490625 0.0
127 1 -0.030121875 -0.00125 -0.018309375 0.0
128 1 -0.030121875 -0.00125 -0.017128125 0.0
129 1 -0.030121875 -0.00125 -0.015946875 1.74019667629e-11
130 1 -0.030121875 -0.00125 -0.014765625 0.0509111013046
131 1 -0.030121875 -0.00125 -0.013584375 0.370259097579
132 1 -0.030121875 -0.00125 -0.012403125 0.00154813293271
133 1 -0.030121875 -0.00125 -0.011221875 0.0107214510125
134 1 -0.030121875 -0.00125 -0.010040625 0.0138696939255
135 1 -0.030121875 -0.00125 -0.008859375 0.000126658700522
136 1 -0.030121875 -0.00125 -0.007678125 0.0
137 1 -0.030121875 -0.00125 -0.006496875 2.79378975481e-22
138 1 -0.030121875 -0.00125 -0.005315625 4.52220221462e-06
139 1 -0.030121875 -0.00125 -0.004134375 4.52220221462e-06
140 1 -0.030121875 -0.00125 -0.002953125 0.0175125891118
141 1 -0.030121875 -0.00125 -0.001771875 0.0622852805866
142 1 -0.030121875 -0.00125 -0.000590625 0.157333659238
143 1 -0.030121875 -0.00125 0.000590625 0.175758979902
144 1 -0.030121875 -0.00125 0.001771875 0.0622852805866
145 1 -0.030121875 -0.00125 0.002953125 0.0175125891118
146 1 -0.030121875 -0.00125 0.004134375 4.52220221462e-06
147 1 -0.030121875 -0.00125 0.005315625 4.52220221462e-06
148 1 -0.030121875 -0.00125 0.006496875 2.79378975481e-22
149 1 -0.030121875 -0.00125 0.007678125 0.0
150 1 -0.030121875 -0.00125 0.008859375 0.000126658700522
151 1 -0.030121875 -0.00125 0.010040625 0.0138696939255
152 1 -0.030121875 -0.00125 0.011221875 0.0107214510125
153 1 -0.030121875 -0.00125 0.012403125 0.00154813293271
154 1 -0.030121875 -0.00125 0.013584375 0.370259097579
155 1 -0.030121875 -0.00125 0.014765625 0.0509111013046
156 1 -0.030121875 -0.00125 0.015946875 1.74019667629e-11
157 1 -0.030121875 -0.00125 0.017128125 0.0
158 1 -0.030121875 -0.00125 0.018309375 0.0
159 1 -0.030121875 -0.00125 0.019490625 0.0
160 1 -0.030121875 -0.00125 0.020671875 0.00466864259094
161 1 -0.028940625 -0.00125 -0.021853125 0.0904523633156
162 1 -0.028940625 -0.00125 -0.020671875 0.00147478389665
163 1 -0.028940625 -0.00125 -0.019490625 1.40785443464e-30
164 1 -0.028940625 -0.00125 -0.018309375 0.0
165 1 -0.028940625 -0.00125 -0.017128125 0.0
166 1 -0.028940625 -0.00125 -0.015946875 6.01557630165e-07
167 1 -0.028940625 -0.00125 -0.014765625 0.0138696939255
168 1 -0.028940625 -0.00125 -0.013584375 0.427279801523
169 1 -0.028940625 -0.00125 -0.012403125 0.00474645121499
170 1 -0.028940625 -0.00125 -0.011221875 1.74019667629e-11
171 1 -0.028940625 -0.00125 -0.010040625 1.74019667629e-11
172 1 -0.028940625 -0.00125 -0.008859375 1.74019667629e-11
173 1 -0.028940625 -0.00125 -0.007678125 0.0
174 1 -0.028940625 -0.00125 -0.006496875 0.0
175 1 -0.028940625 -0.00125 -0.005315625 1.74019667629e-11
176 1 -0.028940625 -0.00125 -0.004134375 0.0
177 1 -0.028940625 -0.00125 -0.002953125 0.0
178 1 -0.028940625 -0.00125 -0.001771875 1.22156214432e-15
179 1 -0.028940625 -0.00125 -0.000590625 0.0342668919701
180 1 -0.028940625 -0.00125 0.000590625 0.0311465687001
181 1 -0.028940625 -0.00125 0.001771875 1.22156214432e-15
182 1 -0.028940625 -0.00125 0.002953125 0.0
183 1 -0.028940625 -0.00125 0.004134375 0.0
184 1 -0.028940625 -0.00125 0.005315625 1.74019667629e-11
185 1 -0.028940625 -0.00125 0.006496875 0.0
186 1 -0.028940625 -0.00125 0.007678125 0.0
187 1 -0.028940625 -0.00125 0.008859375 1.74019667629e-11
188 1 -0.028940625 -0.00125 0.010040625 1.74019667629e-11
189 1 -0.028940625 -0.00125 0.011221875 1.74019667629e-11
190 1 -0.028940625 -0.00125 0.012403125 0.00474645121499
191 1 -0.028940625 -0.00125 0.013584375 0.427279801523
192 1 -0.028940625 -0.00125 0.014765625 0.0138696939255
193 1 -0.028940625 -0.00125 0.015946875 6.01557630165e-07
194 1 -0.028940625 -0.00125 0.017128125 0.0
195 1 -0.028940625 -0.00125 0.018309375 0.0
196 1 -0.028940625 -0.00125 0.019490625 1.40785443464e-30
197 1 -0.028940625 -0.00125 0.020671875 0.00147478389665
198 1 -0.028940625 -0.00125 0.021853125 0.0904523633156
199 1 -0.027759375 -0.00125 -0.024215625 0.00920066229086
200 1 -0.027759375 -0.00125 -0.023034375 0.148382227834
201 1 -0.027759375 -0.00125 -0.021853125 0.232162758618
202 1 -0.027759375 -0.00125 -0.020671875 0.0381872649833
203 1 -0.027759375 -0.00125 -0.019490625 2.79378975481e-22
204 1 -0.027759375 -0.00125 -0.018309375 0.0
205 1 -0.027759375 -0.00125 -0.017128125 1.74019667629e-11
206 1 -0.027759375 -0.00125 -0.015946875 1.74019667629e-11
207 1 -0.027759375 -0.00125 -0.014765625 0.0999860491522
208 1 -0.027759375 -0.00125 -0.013584375 0.766881513752
209 1 -0.027759375 -0.00125 -0.012403125 0.123928325831
210 1 -0.027759375 -0.00125 -0.011221875 0.0
211 1 -0.027759375 -0.00125 -0.010040625 0.0
212 1 -0.027759375 -0.00125 -0.008859375 1.74019667629e-11
213 1 -0.027759375 -0.00125 -0.007678125 0.0
214 1 -0.027759375 -0.00125 -0.006496875 0.0
215 1 -0.027759375 -0.00125 -0.005315625 0.0
216 1 -0.027759375 -0.00125 -0.004134375 0.0
217 1 -0.027759375 -0.00125 -0.002953125 1.74019667629e-11
218 1 -0.027759375 -0.00125 -0.001771875 0.0
219 1 -0.027759375 -0.00125 -0.000590625 0.00162887999819
220 1 -0.027759375 -0.00125 0.000590625 2.731857959e-07
221 1 -0.027759375 -0.00125 0.001771875 0.0
222 1 -0.027759375 -0.00125 0.002953125 1.74019667629e-11
223 1 -0.027759375 -0.00125 0.004134375 0.0
224 1 -0.027759375 -0.00125 0.005315625 0.0
225 1 -0.027759375 -0.00125 0.006496875 0.0
226 1 -0.027759375 -0.00125 0.007678125 0.0
227 1 -0.027759375 -0.00125 0.008859375 1.74019667629e-11
228 1 -0.027759375 -0.00125 0.010040625 0.0
229 1 -0.027759375 -0.00125 0.011221875 0.0
230 1 -0.027759375 -0.00125 0.012403125 0.123928325831
231 1 -0.027759375 -0.00125 0.013584375 0.766881513752
232 1 -0.027759375 -0.00125 0.014765625 0.0999860491522
233 1 -0.027759375 -0.00125 0.015946875 1.74019667629e-11
234 1 -0.027759375 -0.00125 0.017128125 1.74019667629e-11
235 1 -0.027759375 -0.00125 0.018309375 0.0
236 1 -0.027759375 -0.00125 0.019490625 2.79378975481e-22
237 1 -0.027759375 -0.00125 0.020671875 0.0381872649833
238 1 -0.027759375 -0.00125 0.021853125 0.232162758618
239 1 -0.027759375 -0.00125 0.023034375 0.148382227834
240 1 -0.027759375 -0.00125 0.024215625 0.00920066229086
241 1 -0.026578125 -0.00125 -0.026578125 0.0
242 1 -0.026578125 -0.00125 -0.025396875 0.00276057001014
243 1 -0.026578125 -0.00125 -0.024215625 0.183895666542
244 1 -0.026578125 -0.00125 -0.023034375 0.0207856853608
245 1 -0.026578125 -0.00125 -0.021853125 0.0443322841124
246 1 -0.026578125 -0.00125 -0.020671875 0.0660411189129
247 1 -0.026578125 -0.00125 -0.019490625 0.0171259044483
248 1 -0.026578125 -0.00125 -0.018309375 0.00118682874801
249 1 -0.026578125 -0.00125 -0.017128125 7.69890035527e-05
250 1 -0.026578125 -0.00125 -0.015946875 2.79378975481e-22
251 1 -0.026578125 -0.00125 -0.014765625 0.00019868031303
252 1 -0.026578125 -0.00125 -0.013584375 0.368583666968
253 1 -0.026578125 -0.00125 -0.012403125 0.186171540908
254 1 -0.026578125 -0.00125 -0.011221875 0.0
255 1 -0.026578125 -0.00125 -0.010040625 0.0
256 1 -0.026578125 -0.00125 -0.008859375 1.74014005978e-11
257 1 -0.026578125 -0.00125 -0.007678125 1.28752206004e-08
258 1 -0.026578125 -0.00125 -0.006496875 2.34307016634e-18
259 1 -0.026578125 -0.00125 -0.005315625 1.68588419471e-07
260 1 -0.026578125 -0.00125 -0.004134375 7.69885813891e-05
261 1 -0.026578125 -0.00125 -0.002953125 0.00284458163855
262 1 -0.026578125 -0.00125 -0.001771875 0.000535659512892
263 1 -0.026578125 -0.00125 -0.000590625 0.000560322037513
264 1 -0.026578125 -0.00125 0.000590625 2.28013478117e-05
265 1 -0.026578125 -0.00125 0.001771875 0.000535659512892
266 1 -0.026578125 -0.00125 0.002953125 0.00284458163855
267 1 -0.026578125 -0.00125 0.004134375 7.69885813891e-05
268 1 -0.026578125 -0.00125 0.005315625 1.68588419471e-07
269 1 -0.026578125 -0.00125 0.006496875 2.34307016634e-18
270 1 -0.026578125 -0.00125 0.007678125 1.28752206004e-08
271 1 -0.026578125 -0.00125 0.008859375 1.74014005978e-11
272 1 -0.026578125 -0.00125 0.010040625 0.0
273 1 -0.026578125 -0.00125 0.011221875 0.0
274 1 -0.026578125 -0.00125 0.012403125 0.186171540908
275 1 -0.026578125 -0.00125 0.013584375 0.368583666968
276 1 -0.026578125 -0.00125 0.014765625 0.00019868031303
277 1 -0.026578125 -0.00125 0.015946875 2.79378975481e-22
278 1 -0.026578125 -0.00125 0.017128125 7.69890035527e-05
279 1 -0.026578125 -0.00125 0.018309375 0.00118682874801
280 1 -0.026578125 -0.00125 0.019490625 0.0171259044483
281 1 -0.026578125 -0.00125 0.020671875 0.0660411189129
282 1 -0.026578125 -0.00125 0.021853125 0.0443322841124
283 1 -0.026578125 -0.00125 0.023034375 0.0207856853608
284 1 -0.026578125 -0.00125 0.024215625 0.183895666542
285 1 -0.026578125 -0.00125 0.025396875 0.00276057001014
286 1 -0.026578125 -0.00125 0.026578125 0.0
287 1 -0.025396875 -0.00125 -0.026578125 0.00713501987779
288 1 -0.025396875 -0.00125 -0.025396875 0.091233852548
289 1 -0.025396875 -0.00125 -0.024215625 0.0138696939255
290 1 -0.025396875 -0.00125 -0.023034375 0.0138696939255
291 1 -0.025396875 -0.00125 -0.021853125 0.0107214510125
292 1 -0.025396875 -0.00125 -0.020671875 0.0107214510125
293 1 -0.025396875 -0.00125 -0.019490625 0.00565999405337
294 1 -0.025396875 -0.00125 -0.018309375 0.0443322841124
295 1 -0.025396875 -0.00125 -0.017128125 0.0138696939255
296 1 -0.025396875 -0.00125 -0.015946875 0.0138696939255
297 1 -0.025396875 -0.00125 -0.014765625 0.0138696939255
298 1 -0.025396875 -0.00125 -0.013584375 0.205179062488
299 1 -0.025396875 -0.00125 -0.012403125 0.186171540908
300 1 -0.025396875 -0.00125 -0.011221875 0.0
301 1 -0.025396875 -0.00125 -0.010040625 0.0
302 1 -0.025396875 -0.00125 -0.008859375 0.000126657572948
303 1 -0.025396875 -0.00125 -0.007678125 0.0107214510125
304 1 -0.025396875 -0.00125 -0.006496875 0.0869646497893
305 1 -0.025396875 -0.00125 -0.005315625 0.01386971523
306 1 -0.025396875 -0.00125 -0.004134375 0.00154812961495
307 1 -0.025396875 -0.00125 -0.002953125 4.42606186288e-05
308 1 -0.025396875 -0.00125 -0.001771875 0.00668184101894
309 1 -0.025396875 -0.00125 -0.000590625 0.12316862707
310 1 -0.025396875 -0.00125 0.000590625 0.0335972786663
311 1 -0.025396875 -0.00125 0.001771875 0.00668184101894
312 1 -0.025396875 -0.00125 0.002953125 4.42606186288e-05
313 1 -0.025396875 -0.00125 0.004134375 0.00154812961495
314 1 -0.025396875 -0.00125 0.005315625 0.01386971523
315 1 -0.025396875 -0.00125 0.006496875 0.0869646497893
316 1 -0.025396875 -0.00125 0.007678125 0.0107214510125
317 1 -0.025396875 -0.00125 0.008859375 0.000126657572948
318 1 -0.025396875 -0.00125 0.010040625 0.0
319 1 -0.025396875 -0.00125 0.011221875 0.0
320 1 -0.025396875 -0.00125 0.012403125 0.186171540908
321 1 -0.025396875 -0.00125 0.013584375 0.205179062488
322 1 -0.025396875 -0.00125 0.014765625 0.0138696939255
323 1 -0.025396875 -0.00125 0.015946875 0.0138696939255
324 1 -0.025396875 -0.00125 0.017128125 0.0138696939255
325 1 -0.025396875 -0.00125 0.018309375 0.0443322841124
326 1 -0.025396875 -0.00125 0.019490625 0.00565999405337
327 1 -0.025396875 -0.00125 0.020671875 0.0107214510125
328 1 -0.025396875 -0.00125 0.021853125 0.0107214510125
329 1 -0.025396875 -0.00125 0.023034375 0.0138696939255
330 1 -0.025396875 -0.00125 0.024215625 0.0138696939255
331 1 -0.025396875 -0.00125 0.025396875 0.091233852548
332 1 -0.025396875 -0.00125 0.026578125 0.00713501987779
333 1 -0.024215625 -0.00125 -0.027759375 0.0
334 1 -0.024215625 -0.00125 -0.026578125 0.0050093881443
335 1 -0.024215625 -0.00125 -0.025396875 0.292342717184
336 1 -0.024215625 -0.00125 -0.024215625 0.186171540908
337 1 -0.024215625 -0.00125 -0.023034375 0.0138696939255
338 1 -0.024215625 -0.00125 -0.021853125 0.0293069007767
339 1 -0.024215625 -0.00125 -0.020671875 0.0138696939255
340 1 -0.024215625 -0.00125 -0.019490625 0.0393805017402
341 1 -0.024215625 -0.00125 -0.018309375 0.0138696939255
342 1 -0.024215625 -0.00125 -0.017128125 0.0443322841124
343 1 -0.024215625 -0.00125 -0.015946875 0.0443322841124
344 1 -0.024215625 -0.00125 -0.014765625 0.000126658700522
345 1 -0.024215625 -0.00125 -0.013584375 0.123928325831
346 1 -0.024215625 -0.00125 -0.012403125 0.186171540908
347 1 -0.024215625 -0.00125 -0.011221875 0.000126658700522
348 1 -0.024215625 -0.00125 -0.010040625 0.00474645121499
349 1 -0.024215625 -0.00125 -0.008859375 0.0293069224194
350 1 -0.024215625 -0.00125 -0.007678125 0.0293069224194
351 1 -0.024215625 -0.00125 -0.006496875 0.243984912454
352 1 -0.024215625 -0.00125 -0.005315625 0.0443323240644
353 1 -0.024215625 -0.00125 -0.004134375 0.00474644221021
354 1 -0.024215625 -0.00125 -0.002953125 0.0622852495443
355 1 -0.024215625 -0.00125 -0.001771875 0.0698876476892
356 1 -0.024215625 -0.00125 -0.000590625 0.0680301883022
357 1 -0.024215625 -0.00125 0.000590625 0.226628136769
358 1 -0.024215625 -0.00125 0.001771875 0.0698876476892
359 1 -0.024215625 -0.00125 0.002953125 0.0622852495443
360 1 -0.024215625 -0.00125 0.004134375 0.00474644221021
361 1 -0.024215625 -0.00125 0.005315625 0.0443323240644
362 1 -0.024215625 -0.00125 0.006496875 0.243984912454
363 1 -0.024215625 -0.00125 0.007678125 0.0293069224194
364 1 -0.024215625 -0.00125 0.008859375 0.0293069224194
365 1 -0.024215625 -0.00125 0.010040625 0.00474645121499
366 1 -0.024215625 -0.00125 0.011221875 0.000126658700522
367 1 -0.024215625 -0.00125 0.012403125 0.186171540908
368 1 -0.024215625 -0.00125 0.013584375 0.123928325831
369 1 -0.024215625 -0.00125 0.014765625 0.000126658700522
370 1 -0.024215625 -0.00125 0.015946875 0.0443322841124
371 1 -0.024215625 -0.00125 0.017128125 0.0443322841124
372 1 -0.024215625 -0.00125 0.018309375 0.0138696939255
373 1 -0.024215625 -0.00125 0.019490625 0.0393805017402
374 1 -0.024215625 -0.00125 0.020671875 0.0138696939255
375 1 -0.024215625 -0.00125 0.021853125 0.0293069007767
376 1 -0.024215625 -0.00125 0.023034375 0.0138696939255
377 1 -0.024215625 -0.00125 0.024215625 0.186171540908
378 1 -0.024215625 -0.00125 0.025396875 0.292342717184
379 1 -0.024215625 -0.00125 0.026578125 0.0050093881443
380 1 -0.024215625 -0.00125 0.027759375 0.0
381 1 -0.023034375 -0.00125 -0.027759375 0.0
382 1 -0.023034375 -0.00125 -0.026578125 2.79378975481e-22
383 1 -0.023034375 -0.00125 -0.025396875 0.0827704306511
384 1 -0.023034375 -0.00125 -0.024215625 0.412738808647
385 1 -0.023034375 -0.00125 -0.023034375 0.252716464147
386 1 -0.023034375 -0.00125 -0.021853125 0.0698876476892
387 1 -0.023034375 -0.00125 -0.020671875 0.0138696939255
388 1 -0.023034375 -0.00125 -0.019490625 0.0138696939255
389 1 -0.023034375 -0.00125 -0.018309375 0.0138696939255
390 1 -0.023034375 -0.00125 -0.017128125 0.00474645121499
391 1 -0.023034375 -0.00125 -0.015946875 0.00154813293271
392 1 -0.023034375 -0.00125 -0.014765625 0.00474645121499
393 1 -0.023034375 -0.00125 -0.013584375 0.066041103006
394 1 -0.023034375 -0.00125 -0.012403125 0.569364093285
395 1 -0.023034375 -0.00125 -0.011221875 0.0778403180889
396 1 -0.023034375 -0.00125 -0.010040625 0.133535038668
397 1 -0.023034375 -0.00125 -0.008859375 0.186171540908
398 1 -0.023034375 -0.00125 -0.007678125 0.0443323240644
399 1 -0.023034375 -0.00125 -0.006496875 0.205178839796
400 1 -0.023034375 -0.00125 -0.005315625 0.0509111013046
401 1 -0.023034375 -0.00125 -0.004134375 0.091233852548
402 1 -0.023034375 -0.00125 -0.002953125 0.123928325831
403 1 -0.023034375 -0.00125 -0.001771875 0.224469737872
404 1 -0.023034375 -0.00125 -0.000590625 0.161898470834
405 1 -0.023034375 -0.00125 0.000590625 0.170803747454
406 1 -0.023034375 -0.00125 0.001771875 0.224469737872
407 1 -0.023034375 -0.00125 0.002953125 0.123928325831
408 1 -0.023034375 -0.00125 0.004134375 0.091233852548
409 1 -0.023034375 -0.00125 0.005315625 0.0509111013046
410 1 -0.023034375 -0.00125 0.006496875 0.205178839796
411 1 -0.023034375 -0.00125 0.007678125 0.0443323240644
412 1 -0.023034375 -0.00125 0.008859375 0.186171540908
413 1 -0.023034375 -0.00125 0.010040625 0.133535038668
414 1 -0.023034375 -0.00125 0.011221875 0.0778403180889
415 1 -0.023034375 -0.00125 0.012403125 0.569364093285
416 1 -0.023034375 -0.00125 0.013584375 0.066041103006
417 1 -0.023034375 -0.00125 0.014765625 0.00474645121499
418 1 -0.023034375 -0.00125 0.015946875 0.00154813293271
419 1 -0.023034375 -0.00125 0.017128125 0.00474645121499
420 1 -0.023034375 -0.00125 0.018309375 0.0138696939255
421 1 -0.023034375 -0.00125 0.019490625 0.0138696939255
422 1 -0.023034375 -0.00125 0.020671875 0.0138696939255
423 1 -0.023034375 -0.00125 0.021853125 0.0698876476892
424 1 -0.023034375 -0.00125 0.023034375 0.252716464147
425 1 -0.023034375 -0.00125 0.024215625 0.412738808647
426 1 -0.023034375 -0.00125 0.025396875 0.0827704306511
427 1 -0.023034375 -0.00125 0.026578125 2.79378975481e-22
428 1 -0.023034375 -0.00125 0.027759375 0.0
429 1 -0.021853125 -0.00125 -0.028940625 0.0
430 1 -0.021853125 -0.00125 -0.027759375 0.0
431 1 -0.021853125 -0.00125 -0.026578125 0.0
432 1 -0.021853125 -0.00125 -0.025396875 0.000299131636816
433 1 -0.021853125 -0.00125 -0.024215625 0.01386971523
434 1 -0.021853125 -0.00125 -0.023034375 0.361324541927
435 1 -0.021853125 -0.00125 -0.021853125 0.459722771872
436 1 -0.021853125 -0.00125 -0.020671875 0.0698876476892
437 1 -0.021853125 -0.00125 -0.019490625 0.0138696939255
438 1 -0.021853125 -0.00125 -0.018309375 0.0138696939255
439 1 -0.021853125 -0.00125 -0.017128125 0.0138696939255
440 1 -0.021853125 -0.00125 -0.015946875 0.0138696939255
441 1 -0.021853125 -0.00125 -0.014765625 0.01386971523
442 1 -0.021853125 -0.00125 -0.013584375 0.154307352577
443 1 -0.021853125 -0.00125 -0.012403125 0.840641253884
444 1 -0.021853125 -0.00125 -0.011221875 0.159358746116
445 1 -0.021853125 -0.00125 -0.010040625 0.091233852548
446 1 -0.021853125 -0.00125 -0.008859375 0.343471904739
447 1 -0.021853125 -0.00125 -0.007678125 0.224469737872
448 1 -0.021853125 -0.00125 -0.006496875 0.39596414252
449 1 -0.021853125 -0.00125 -0.005315625 0.281290216208
450 1 -0.021853125 -0.00125 -0.004134375 0.281290216208
451 1 -0.021853125 -0.00125 -0.002953125 0.332327069371
452 1 -0.021853125 -0.00125 -0.001771875 0.224469737872
453 1 -0.021853125 -0.00125 -0.000590625 0.0586231762416
454 1 -0.021853125 -0.00125 0.000590625 0.123168904969
455 1 -0.021853125 -0.00125 0.001771875 0.224469737872
456 1 -0.021853125 -0.00125 0.002953125 0.332327069371
457 1 -0.021853125 -0.00125 0.004134375 0.281290216208
458 1 -0.021853125 -0.00125 0.005315625 0.281290216208
459 1 -0.021853125 -0.00125 0.006496875 0.39596414252
460 1 -0.021853125 -0.00125 0.007678125 0.224469737872
461 1 -0.021853125 -0.00125 0.008859375 0.343471904739
462 1 -0.021853125 -0.00125 0.010040625 0.091233852548
463 1 -0.021853125 -0.00125 0.011221875 0.159358746116
464 1 -0.021853125 -0.00125 0.012403125 0.840641253884
465 1 -0.021853125 -0.00125 0.013584375 0.154307352577
466 1 -0.021853125 -0.00125 0.014765625 0.01386971523
467 1 -0.021853125 -0.00125 0.015946875 0.0138696939255
468 1 -0.021853125 -0.00125 0.017128125 0.0138696939255
469 1 -0.021853125 -0.00125 0.018309375 0.0138696939255
470 1 -0.021853125 -0.00125 0.019490625 0.0138696939255
471 1 -0.021853125 -0.00125 0.020671875 0.0698876476892
472 1 -0.021853125 -0.00125 0.021853125 0.459722771872
473 1 -0.021853125 -0.00125 0.023034375 0.361324541927
474 1 -0.021853125 -0.00125 0.024215625 0.01386971523
475 1 -0.021853125 -0.00125 0.025396875 0.000299131636816
476 1 -0.021853125 -0.00125 0.026578125 0.0
477 1 -0.021853125 -0.00125 0.027759375 0.0
478 1 -0.021853125 -0.00125 0.028940625 0.0
479 1 -0.020671875 -0.00125 -0.030121875 0.0
480 1 -0.020671875 -0.00125 -0.028940625 0.0
481 1 -0.020671875 -0.00125 -0.027759375 0.0
482 1 -0.020671875 -0.00125 -0.026578125 0.0
483 1 -0.020671875 -0.00125 -0.025396875 0.0
484 1 -0.020671875 -0.00125 -0.024215625 1.74019667629e-11
485 1 -0.020671875 -0.00125 -0.023034375 0.00154813293271
486 1 -0.020671875 -0.00125 -0.021853125 0.175758893257
487 1 -0.020671875 -0.00125 -0.020671875 0.459722771872
488 1 -0.020671875 -0.00125 -0.019490625 0.11175699854
489 1 -0.020671875 -0.00125 -0.018309375 0.0293069007767
490 1 -0.020671875 -0.00125 -0.017128125 0.0293069007767
491 1 -0.020671875 -0.00125 -0.015946875 0.0293069007767
492 1 -0.020671875 -0.00125 -0.014765625 0.0293069007767
493 1 -0.020671875 -0.00125 -0.013584375 0.0600766491627
494 1 -0.020671875 -0.00125 -0.012403125 0.78627876631
495 1 -0.020671875 -0.00125 -0.011221875 0.332326556717
496 1 -0.020671875 -0.00125 -0.010040625 0.143331930085
497 1 -0.020671875 -0.00125 -0.008859375 0.292342717184
498 1 -0.020671875 -0.00125 -0.007678125 0.441823107051
499 1 -0.020671875 -0.00125 -0.006496875 0.224469467126
500 1 -0.020671875 -0.00125 -0.005315625 0.196692230435
501 1 -0.020671875 -0.00125 -0.004134375 0.224469737872
502 1 -0.020671875 -0.00125 -0.002953125 0.383667992273
503 1 -0.020671875 -0.00125 -0.001771875 0.292342717184
504 1 -0.020671875 -0.00125 -0.000590625 0.104282575654
505 1 -0.020671875 -0.00125 0.000590625 0.169569143203
506 1 -0.020671875 -0.00125 0.001771875 0.292342717184
507 1 -0.020671875 -0.00125 0.002953125 0.383667992273
508 1 -0.020671875 -0.00125 0.004134375 0.224469737872
509 1 -0.020671875 -0.00125 0.005315625 0.196692230435
510 1 -0.020671875 -0.00125 0.006496875 0.224469467126
511 1 -0.020671875 -0.00125 0.007678125 0.441823107051
512 1 -0.020671875 -0.00125 0.008859375 0.292342717184
513 1 -0.020671875 -0.00125 0.010040625 0.143331930085
514 1 -0.020671875 -0.00125 0.011221875 0.332326556717
515 1 -0.020671875 -0.00125 0.012403125 0.78627876631
516 1 -0.020671875 -0.00125 0.013584375 0.0600766491627
517 1 -0.020671875 -0.00125 0.014765625 0.0293069007767
518 1 -0.020671875 -0.00125 0.015946875 0.0293069007767
519 1 -0.020671875 -0.00125 0.017128125 0.0293069007767
520 1 -0.020671875 -0.00125 0.018309375 0.0293069007767
521 1 -0.020671875 -0.00125 0.019490625 0.11175699854
522 1 -0.020671875 -0.00125 0.020671875 0.459722771872
523 1 -0.020671875 -0.00125 0.021853125 0.175758893257
524 1 -0.020671875 -0.00125 0.023034375 0.00154813293271
525 1 -0.020671875 -0.00125 0.024215625 1.74019667629e-11
526 1 -0.020671875 -0.00125 0.025396875 0.0
527 1 -0.020671875 -0.00125 0.026578125 0.0
528 1 -0.020671875 -0.00125 0.027759375 0.0
529 1 -0.020671875 -0.00125 0.028940625 0.0
530 1 -0.020671875 -0.00125 0.030121875 0.0
531 1 -0.019490625 -0.00125 -0.031303125 2.66892347814e-17
532 1 -0.019490625 -0.00125 -0.030121875 0.0
533 1 -0.019490625 -0.00125 -0.028940625 0.0
534 1 -0.019490625 -0.00125 -0.027759375 0.0
535 1 -0.019490625 -0.00125 -0.026578125 0.0
536 1 -0.019490625 -0.00125 -0.025396875 0.0
537 1 -0.019490625 -0.00125 -0.024215625 0.0
538 1 -0.019490625 -0.00125 -0.023034375 3.14925560351e-13
539 1 -0.019490625 -0.00125 -0.021853125 0.0243767854583
540 1 -0.019490625 -0.00125 -0.020671875 0.361324775515
541 1 -0.019490625 -0.00125 -0.019490625 0.570482601822
542 1 -0.019490625 -0.00125 -0.018309375 0.224469963493
543 1 -0.019490625 -0.00125 -0.017128125 0.0600766491627
544 1 -0.019490625 -0.00125 -0.015946875 0.0698876476892
545 1 -0.019490625 -0.00125 -0.014765625 0.0802910104399
546 1 -0.019490625 -0.00125 -0.013584375 0.147798083792
547 1 -0.019490625 -0.00125 -0.012403125 0.514543979749