ITEM: TIMESTEP
0
ITEM: NUMBER OF ATOMS
3080
ITEM: BOX BOUNDS ss ss ss
-3.7007399999999996e-02 3.7007399999999996e-02
-2.0002499999999999e-03 2.5000000000000004e-07
-3.7007399999999996e-02 3.7007399999999996e-02
ITEM: ATOMS id type x y z c_1
0 1 -0.037209375 -0.00125 -0.000590625 1.0
1 1 -0.036028125 -0.00125 -0.007678125 0.0
2 1 -0.036028125 -0.00125 -0.006496875 1.22148603069e-15
3 1 -0.036028125 -0.00125 -0.005315625 0.0593479602031
4 1 -0.036028125 -0.00125 -0.004134375 0.226628227132
5 1 -0.036028125 -0.00125 -0.002953125 0.188267174204
6 1 -0.036028125 -0.00125 -0.001771875 0.381431943169
7 1 -0.036028125 -0.00125 -0.000590625 0.148382227834
8 1 -0.036028125 -0.00125 0.000590625 2.18562566225e-09
9 1 -0.036028125 -0.00125 0.001771875 0.0
10 1 -0.036028125 -0.00125 0.002953125 0.0
11 1 -0.036028125 -0.00125 0.004134375 0.0
12 1 -0.036028125 -0.00125 0.005315625 0.0
13 1 -0.036028125 -0.00125 0.006496875 0.0
14 1 -0.036028125 -0.00125 0.007678125 1.7269595626e-06
15 1 -0.034846875 -0.00125 -0.011221875 0.00920066229086
16 1 -0.034846875 -0.00125 -0.010040625 3.70458005324e-08
17 1 -0.034846875 -0.00125 -0.008859375 0.00106278235535
18 1 -0.034846875 -0.00125 -0.007678125 0.0
19 1 -0.034846875 -0.00125 -0.006496875 0.0
20 1 -0.034846875 -0.00125 -0.005315625 1.74019667629e-11
21 1 -0.034846875 -0.00125 -0.004134375 0.0698876476892
22 1 -0.034846875 -0.00125 -0.002953125 0.224469737872
23 1 -0.034846875 -0.00125 -0.001771875 0.321195978177
24 1 -0.034846875 -0.00125 -0.000590625 0.186171540908
25 1 -0.034846875 -0.00125 0.000590625 0.00037578590857
26 1 -0.034846875 -0.00125 0.001771875 0.0
27 1 -0.034846875 -0.00125 0.002953125 0.0
28 1 -0.034846875 -0.00125 0.004134375 0.0
29 1 -0.034846875 -0.00125 0.005315625 0.0
30 1 -0.034846875 -0.00125 0.006496875 2.79378975481e-22
31 1 -0.034846875 -0.00125 0.007678125 0.000245543891342
32 1 -0.034846875 -0.00125 0.008859375 0.0418564289367
33 1 -0.034846875 -0.00125 0.010040625 4.42606186288e-05
34 1 -0.034846875 -0.00125 0.011221875 1.7269595626e-06
35 1 -0.033665625 -0.00125 -0.013584375 0.0
36 1 -0.033665625 -0.00125 -0.012403125 0.320687946562
37 1 -0.033665625 -0.00125 -0.011221875 0.112788508618
38 1 -0.033665625 -0.00125 -0.010040625 0.00668184101894
39 1 -0.033665625 -0.00125 -0.008859375 0.00154813293271
40 1 -0.033665625 -0.00125 -0.007678125 0.0
41 1 -0.033665625 -0.00125 -0.006496875 2.79378975481e-22
42 1 -0.033665625 -0.00125 -0.005315625 0.0
43 1 -0.033665625 -0.00125 -0.004134375 0.000126658700522
44 1 -0.033665625 -0.00125 -0.002953125 0.123928325831
45 1 -0.033665625 -0.00125 -0.001771875 0.332326556717
46 1 -0.033665625 -0.00125 -0.000590625 0.235286796702
47 1 -0.033665625 -0.00125 0.000590625 0.000198679956635
48 1 -0.033665625 -0.00125 0.001771875 1.74019667629e-11
49 1 -0.033665625 -0.00125 0.002953125 1.74019667629e-11
50 1 -0.033665625 -0.00125 0.004134375 1.74019667629e-11
51 1 -0.033665625 -0.00125 0.005315625 1.74019667629e-11
52 1 -0.033665625 -0.00125 0.006496875 0.000535657991014
53 1 -0.033665625 -0.00125 0.007678125 0.0443322841124
54 1 -0.033665625 -0.00125 0.008859375 0.091233852548
55 1 -0.033665625 -0.00125 0.010040625 0.00474645121499
56 1 -0.033665625 -0.00125 0.011221875 1.18026294841e-10
57 1 -0.033665625 -0.00125 0.012403125 8.19548828049e-05
58 1 -0.033665625 -0.00125 0.013584375 2.32938180581e-05
59 1 -0.032484375 -0.00125 -0.018309375 1.7269595626e-06
60 1 -0.032484375 -0.00125 -0.017128125 0.00106278235535
61 1 -0.032484375 -0.00125 -0.015946875 0.149232148947
62 1 -0.032484375 -0.00125 -0.014765625 0.0453010630194
63 1 -0.032484375 -0.00125 -0.013584375 7.49709589486e-44
64 1 -0.032484375 -0.00125 -0.012403125 0.186171540908
65 1 -0.032484375 -0.00125 -0.011221875 0.531326638053
66 1 -0.032484375 -0.00125 -0.010040625 0.427280316392
67 1 -0.032484375 -0.00125 -0.008859375 0.263674221838
68 1 -0.032484375 -0.00125 -0.007678125 0.0698875662891
69 1 -0.032484375 -0.00125 -0.006496875 0.000483155848384
70 1 -0.032484375 -0.00125 -0.005315625 5.56343983788e-05
71 1 -0.032484375 -0.00125 -0.004134375 7.02299466978e-08
72 1 -0.032484375 -0.00125 -0.002953125 3.07880835211e-05
73 1 -0.032484375 -0.00125 -0.001771875 0.172658733081
74 1 -0.032484375 -0.00125 -0.000590625 0.366908099064
75 1 -0.032484375 -0.00125 0.000590625 0.0181020176854
76 1 -0.032484375 -0.00125 0.001771875 2.79378975481e-22
77 1 -0.032484375 -0.00125 0.002953125 1.74019667629e-11
78 1 -0.032484375 -0.00125 0.004134375 1.74019667629e-11
79 1 -0.032484375 -0.00125 0.005315625 0.000126656946521
80 1 -0.032484375 -0.00125 0.006496875 0.0485604658585
81 1 -0.032484375 -0.00125 0.007678125 0.0564723182317
82 1 -0.032484375 -0.00125 0.008859375 0.0912340507322
83 1 -0.032484375 -0.00125 0.010040625 0.154307352577
84 1 -0.032484375 -0.00125 0.011221875 0.00154812961495
85 1 -0.032484375 -0.00125 0.012403125 4.52220221462e-06
86 1 -0.032484375 -0.00125 0.013584375 2.84807060575e-05
87 1 -0.032484375 -0.00125 0.014765625 0.0303059335893
88 1 -0.032484375 -0.00125 0.015946875 0.213907947917
89 1 -0.032484375 -0.00125 0.017128125 0.232375684815
90 1 -0.032484375 -0.00125 0.018309375 0.0
91 1 -0.031303125 -0.00125 -0.019490625 3.89234214171e-05
92 1 -0.031303125 -0.00125 -0.018309375 0.0787499473627
93 1 -0.031303125 -0.00125 -0.017128125 0.091233852548
94 1 -0.031303125 -0.00125 -0.015946875 0.224469737872
95 1 -0.031303125 -0.00125 -0.014765625 0.186171540908
96 1 -0.031303125 -0.00125 -0.013584375 1.77729209249e-06
97 1 -0.031303125 -0.00125 -0.012403125 0.343471904739
98 1 -0.031303125 -0.00125 -0.011221875 0.78627876631
99 1 -0.031303125 -0.00125 -0.010040625 0.372493358291
100 1 -0.031303125 -0.00125 -0.008859375 0.123928325831
101 1 -0.031303125 -0.00125 -0.007678125 0.10900325236
102 1 -0.031303125 -0.00125 -0.006496875 1.74019667629e-11
103 1 -0.031303125 -0.00125 -0.005315625 0.000299132858986
104 1 -0.031303125 -0.00125 -0.004134375 0.000299132858986
105 1 -0.031303125 -0.00125 -0.002953125 0.0
106 1 -0.031303125 -0.00125 -0.001771875 4.52220221462e-06
107 1 -0.031303125 -0.00125 -0.000590625 0.0443322841124
108 1 -0.031303125 -0.00125 0.000590625 0.136454910525
109 1 -0.031303125 -0.00125 0.001771875 0.000126658700522
110 1 -0.031303125 -0.00125 0.002953125 0.00668182974929
111 1 -0.031303125 -0.00125 0.004134375 0.00474645121499
112 1 -0.031303125 -0.00125 0.005315625 0.123928325831
113 1 -0.031303125 -0.00125 0.006496875 0.144321532226
114 1 -0.031303125 -0.00125 0.007678125 0.123928365601
115 1 -0.031303125 -0.00125 0.008859375 0.321195978177
116 1 -0.031303125 -0.00125 0.010040625 0.40155560828
117 1 -0.031303125 -0.00125 0.011221875 0.086119610872
118 1 -0.031303125 -0.00125 0.012403125 0.00474645121499
119 1 -0.031303125 -0.00125 0.013584375 0.0267809990218
120 1 -0.031303125 -0.00125 0.014765625 0.159358746116
121 1 -0.031303125 -0.00125 0.015946875 0.21372123369
122 1 -0.031303125 -0.00125 0.017128125 0.0293069007767
123 1 -0.031303125 -0.00125 0.018309375 0.000245540111831
124 1 -0.031303125 -0.00125 0.019490625 0.0
125 1 -0.030121875 -0.00125 -0.020671875 0.000572971535964
126 1 -0.030121875 -0.00125 -0.019490625 7.6989341285e-05
127 1 -0.030121875 -0.00125 -0.018309375 0.241806908695
128 1 -0.030121875 -0.00125 -0.017128125 0.390374014268
129 1 -0.030121875 -0.00125 -0.015946875 0.511187741896
130 1 -0.030121875 -0.00125 -0.014765625 0.0443322841124
131 1 -0.030121875 -0.00125 -0.013584375 3.07877004318e-05
132 1 -0.030121875 -0.00125 -0.012403125 0.274673763196
133 1 -0.030121875 -0.00125 -0.011221875 0.459723333625
134 1 -0.030121875 -0.00125 -0.010040625 0.0138696939255
135 1 -0.030121875 -0.00125 -0.008859375 1.74019667629e-11
136 1 -0.030121875 -0.00125 -0.007678125 4.52220221462e-06
137 1 -0.030121875 -0.00125 -0.006496875 0.0
138 1 -0.030121875 -0.00125 -0.005315625 0.0
139 1 -0.030121875 -0.00125 -0.004134375 1.74019667629e-11
140 1 -0.030121875 -0.00125 -0.002953125 1.74019667629e-11
141 1 -0.030121875 -0.00125 -0.001771875 6.01557630165e-07
142 1 -0.030121875 -0.00125 -0.000590625 4.52220221462e-06
143 1 -0.030121875 -0.00125 0.000590625 0.0637764707351
144 1 -0.030121875 -0.00125 0.001771875 0.303423296049
145 1 -0.030121875 -0.00125 0.002953125 0.0999860491522
146 1 -0.030121875 -0.00125 0.004134375 0.0443322841124
147 1 -0.030121875 -0.00125 0.005315625 0.169569831299
148 1 -0.030121875 -0.00125 0.006496875 0.131597655573
149 1 -0.030121875 -0.00125 0.007678125 0.133535038668
150 1 -0.030121875 -0.00125 0.008859375 0.235286796702
151 1 -0.030121875 -0.00125 0.010040625 0.3791971081
152 1 -0.030121875 -0.00125 0.011221875 0.165468748191
153 1 -0.030121875 -0.00125 0.012403125 0.0698876476892
154 1 -0.030121875 -0.00125 0.013584375 0.0207856853608
155 1 -0.030121875 -0.00125 0.014765625 0.0698876476892
156 1 -0.030121875 -0.00125 0.015946875 0.0698876476892
157 1 -0.030121875 -0.00125 0.017128125 0.0293069007767
158 1 -0.030121875 -0.00125 0.018309375 0.0293069007767
159 1 -0.030121875 -0.00125 0.019490625 0.0
160 1 -0.030121875 -0.00125 0.020671875 0.0
161 1 -0.028940625 -0.00125 -0.021853125 0.222363446324
162 1 -0.028940625 -0.00125 -0.020671875 0.112788508618
163 1 -0.028940625 -0.00125 -0.019490625 0.0886635297694
164 1 -0.028940625 -0.00125 -0.018309375 0.186171540908
165 1 -0.028940625 -0.00125 -0.017128125 0.14929428164
166 1 -0.028940625 -0.00125 -0.015946875 0.091233852548
167 1 -0.028940625 -0.00125 -0.014765625 0.00154813293271
168 1 -0.028940625 -0.00125 -0.013584375 3.07879020573e-05
169 1 -0.028940625 -0.00125 -0.012403125 0.0138696939255
170 1 -0.028940625 -0.00125 -0.011221875 0.263674497482
171 1 -0.028940625 -0.00125 -0.010040625 0.091233852548
172 1 -0.028940625 -0.00125 -0.008859375 6.01557630165e-07
173 1 -0.028940625 -0.00125 -0.007678125 0.0
174 1 -0.028940625 -0.00125 -0.006496875 0.0
175 1 -0.028940625 -0.00125 -0.005315625 0.0
176 1 -0.028940625 -0.00125 -0.004134375 0.0
177 1 -0.028940625 -0.00125 -0.002953125 0.0
178 1 -0.028940625 -0.00125 -0.001771875 1.22156214432e-15
179 1 -0.028940625 -0.00125 -0.000590625 6.01557630165e-07
180 1 -0.028940625 -0.00125 0.000590625 0.210511756665
181 1 -0.028940625 -0.00125 0.001771875 0.0243767756543
182 1 -0.028940625 -0.00125 0.002953125 0.00154813293271
183 1 -0.028940625 -0.00125 0.004134375 0.000126658700522
184 1 -0.028940625 -0.00125 0.005315625 0.00474645121499
185 1 -0.028940625 -0.00125 0.006496875 0.00855160641309
186 1 -0.028940625 -0.00125 0.007678125 0.091233852548
187 1 -0.028940625 -0.00125 0.008859375 0.186171540908
188 1 -0.028940625 -0.00125 0.010040625 0.139391385346
189 1 -0.028940625 -0.00125 0.011221875 0.01386971523
190 1 -0.028940625 -0.00125 0.012403125 0.0138696939255
191 1 -0.028940625 -0.00125 0.013584375 0.0293069007767
192 1 -0.028940625 -0.00125 0.014765625 0.186171540908
193 1 -0.028940625 -0.00125 0.015946875 0.0443322841124
194 1 -0.028940625 -0.00125 0.017128125 0.0293069007767
195 1 -0.028940625 -0.00125 0.018309375 0.00154813293271
196 1 -0.028940625 -0.00125 0.019490625 1.28754471296e-08
197 1 -0.028940625 -0.00125 0.020671875 0.0
198 1 -0.028940625 -0.00125 0.021853125 0.0
199 1 -0.027759375 -0.00125 -0.024215625 0.109892682674
200 1 -0.027759375 -0.00125 -0.023034375 0.161855041324
201 1 -0.027759375 -0.00125 -0.021853125 0.410173540619
202 1 -0.027759375 -0.00125 -0.020671875 0.482099221396
203 1 -0.027759375 -0.00125 -0.019490625 0.13353499806
204 1 -0.027759375 -0.00125 -0.018309375 0.0698876476892
205 1 -0.027759375 -0.00125 -0.017128125 0.252716464147
206 1 -0.027759375 -0.00125 -0.015946875 0.0107214510125
207 1 -0.027759375 -0.00125 -0.014765625 1.74019667629e-11
208 1 -0.027759375 -0.00125 -0.013584375 1.74014005978e-11
209 1 -0.027759375 -0.00125 -0.012403125 4.52227625942e-06
210 1 -0.027759375 -0.00125 -0.011221875 0.292342717184
211 1 -0.027759375 -0.00125 -0.010040625 0.21372123369
212 1 -0.027759375 -0.00125 -0.008859375 1.74019667629e-11
213 1 -0.027759375 -0.00125 -0.007678125 0.0
214 1 -0.027759375 -0.00125 -0.006496875 3.07878012444e-05
215 1 -0.027759375 -0.00125 -0.005315625 0.00154812961495
216 1 -0.027759375 -0.00125 -0.004134375 1.74019667629e-11
217 1 -0.027759375 -0.00125 -0.002953125 6.01557630165e-07
218 1 -0.027759375 -0.00125 -0.001771875 0.010721438861
219 1 -0.027759375 -0.00125 -0.000590625 0.13939146749
220 1 -0.027759375 -0.00125 0.000590625 0.149294323427
221 1 -0.027759375 -0.00125 0.001771875 1.74019667629e-11
222 1 -0.027759375 -0.00125 0.002953125 1.74019667629e-11
223 1 -0.027759375 -0.00125 0.004134375 1.74019667629e-11
224 1 -0.027759375 -0.00125 0.005315625 6.01557630165e-07
225 1 -0.027759375 -0.00125 0.006496875 7.69890035527e-05
226 1 -0.027759375 -0.00125 0.007678125 0.252716464147
227 1 -0.027759375 -0.00125 0.008859375 0.3791971081
228 1 -0.027759375 -0.00125 0.010040625 0.0698876476892
229 1 -0.027759375 -0.00125 0.011221875 0.000891023127979
230 1 -0.027759375 -0.00125 0.012403125 0.00154813293271
231 1 -0.027759375 -0.00125 0.013584375 0.0443321376221
232 1 -0.027759375 -0.00125 0.014765625 0.091233852548
233 1 -0.027759375 -0.00125 0.015946875 0.0138696939255
234 1 -0.027759375 -0.00125 0.017128125 0.0138696939255
235 1 -0.027759375 -0.00125 0.018309375 0.000126658700522
236 1 -0.027759375 -0.00125 0.019490625 0.0
237 1 -0.027759375 -0.00125 0.020671875 0.0
238 1 -0.027759375 -0.00125 0.021853125 0.0
239 1 -0.027759375 -0.00125 0.023034375 0.0
240 1 -0.027759375 -0.00125 0.024215625 0.0
241 1 -0.026578125 -0.00125 -0.026578125 0.00466864259094
242 1 -0.026578125 -0.00125 -0.025396875 0.122597768345
243 1 -0.026578125 -0.00125 -0.024215625 0.176337915457
244 1 -0.026578125 -0.00125 -0.023034375 0.15935900069
245 1 -0.026578125 -0.00125 -0.021853125 0.308971305021
246 1 -0.026578125 -0.00125 -0.020671875 0.770129521924
247 1 -0.026578125 -0.00125 -0.019490625 0.409942692063
248 1 -0.026578125 -0.00125 -0.018309375 0.123928564454
249 1 -0.026578125 -0.00125 -0.017128125 0.366908099064
250 1 -0.026578125 -0.00125 -0.015946875 0.141358161149
251 1 -0.026578125 -0.00125 -0.014765625 1.58379826604e-05
252 1 -0.026578125 -0.00125 -0.013584375 8.74402144916e-06
253 1 -0.026578125 -0.00125 -0.012403125 0.00474647102553
254 1 -0.026578125 -0.00125 -0.011221875 0.123928365601
255 1 -0.026578125 -0.00125 -0.010040625 0.306751493137
256 1 -0.026578125 -0.00125 -0.008859375 0.247255498869
257 1 -0.026578125 -0.00125 -0.007678125 0.122031877572
258 1 -0.026578125 -0.00125 -0.006496875 0.0762230233603
259 1 -0.026578125 -0.00125 -0.005315625 0.0564722735982
260 1 -0.026578125 -0.00125 -0.004134375 0.0564721545756
261 1 -0.026578125 -0.00125 -0.002953125 0.205179329719
262 1 -0.026578125 -0.00125 -0.001771875 0.162407426649
263 1 -0.026578125 -0.00125 -0.000590625 0.21693828514
264 1 -0.026578125 -0.00125 0.000590625 0.393281105488
265 1 -0.026578125 -0.00125 0.001771875 0.033597359974
266 1 -0.026578125 -0.00125 0.002953125 0.024376746242
267 1 -0.026578125 -0.00125 0.004134375 0.00987189222788
268 1 -0.026578125 -0.00125 0.005315625 0.0509112007263
269 1 -0.026578125 -0.00125 0.006496875 0.210511846095
270 1 -0.026578125 -0.00125 0.007678125 0.476505075155
271 1 -0.026578125 -0.00125 0.008859375 0.0267810609157
272 1 -0.026578125 -0.00125 0.010040625 0.000126658700522
273 1 -0.026578125 -0.00125 0.011221875 0.000126658700522
274 1 -0.026578125 -0.00125 0.012403125 0.00154813459158
275 1 -0.026578125 -0.00125 0.013584375 0.00212748288543
276 1 -0.026578125 -0.00125 0.014765625 0.000126658700522
277 1 -0.026578125 -0.00125 0.015946875 0.00284458672872
278 1 -0.026578125 -0.00125 0.017128125 0.0564721694534
279 1 -0.026578125 -0.00125 0.018309375 0.0529663073376
280 1 -0.026578125 -0.00125 0.019490625 2.71824019983e-12
281 1 -0.026578125 -0.00125 0.020671875 0.0
282 1 -0.026578125 -0.00125 0.021853125 0.0
283 1 -0.026578125 -0.00125 0.023034375 0.0
284 1 -0.026578125 -0.00125 0.024215625 0.0
285 1 -0.026578125 -0.00125 0.025396875 0.0
286 1 -0.026578125 -0.00125 0.026578125 0.0
287 1 -0.025396875 -0.00125 -0.026578125 0.0
288 1 -0.025396875 -0.00125 -0.025396875 0.0
289 1 -0.025396875 -0.00125 -0.024215625 0.0138696939255
290 1 -0.025396875 -0.00125 -0.023034375 0.0999860491522
291 1 -0.025396875 -0.00125 -0.021853125 0.0698876476892
292 1 -0.025396875 -0.00125 -0.020671875 0.224469737872
293 1 -0.025396875 -0.00125 -0.019490625 0.525732740375
294 1 -0.025396875 -0.00125 -0.018309375 0.470910984646
295 1 -0.025396875 -0.00125 -0.017128125 0.59844434493
296 1 -0.025396875 -0.00125 -0.015946875 0.298987939022
297 1 -0.025396875 -0.00125 -0.014765625 0.091233852548
298 1 -0.025396875 -0.00125 -0.013584375 0.10266435538
299 1 -0.025396875 -0.00125 -0.012403125 0.40155560828
300 1 -0.025396875 -0.00125 -0.011221875 0.558176892949
301 1 -0.025396875 -0.00125 -0.010040625 0.292342717184
302 1 -0.025396875 -0.00125 -0.008859375 0.224469737872
303 1 -0.025396875 -0.00125 -0.007678125 0.21372123369
304 1 -0.025396875 -0.00125 -0.006496875 0.357975472462
305 1 -0.025396875 -0.00125 -0.005315625 0.303423296049
306 1 -0.025396875 -0.00125 -0.004134375 0.343471904739
307 1 -0.025396875 -0.00125 -0.002953125 0.522376508072
308 1 -0.025396875 -0.00125 -0.001771875 0.314525490432
309 1 -0.025396875 -0.00125 -0.000590625 0.350721689069
310 1 -0.025396875 -0.00125 0.000590625 0.293671099877
311 1 -0.025396875 -0.00125 0.001771875 0.310081568404
312 1 -0.025396875 -0.00125 0.002953125 0.441823107051
313 1 -0.025396875 -0.00125 0.004134375 0.448535349767
314 1 -0.025396875 -0.00125 0.005315625 0.419449528188
315 1 -0.025396875 -0.00125 0.006496875 0.552583258792
316 1 -0.025396875 -0.00125 0.007678125 0.314525490432
317 1 -0.025396875 -0.00125 0.008859375 0.091233852548
318 1 -0.025396875 -0.00125 0.010040625 0.0138696939255
319 1 -0.025396875 -0.00125 0.011221875 0.0138696939255
320 1 -0.025396875 -0.00125 0.012403125 0.0443322841124
321 1 -0.025396875 -0.00125 0.013584375 0.0122342732579
322 1 -0.025396875 -0.00125 0.014765625 0.0138696939255
323 1 -0.025396875 -0.00125 0.015946875 0.091233852548
324 1 -0.025396875 -0.00125 0.017128125 0.361324541927
325 1 -0.025396875 -0.00125 0.018309375 0.292342717184
326 1 -0.025396875 -0.00125 0.019490625 1.77731074088e-06
327 1 -0.025396875 -0.00125 0.020671875 0.0
328 1 -0.025396875 -0.00125 0.021853125 0.0
329 1 -0.025396875 -0.00125 0.023034375 0.0
330 1 -0.025396875 -0.00125 0.024215625 0.0
331 1 -0.025396875 -0.00125 0.025396875 0.0
332 1 -0.025396875 -0.00125 0.026578125 0.0
333 1 -0.024215625 -0.00125 -0.027759375 0.0
334 1 -0.024215625 -0.00125 -0.026578125 2.79378975481e-22
335 1 -0.024215625 -0.00125 -0.025396875 1.74019667629e-11
336 1 -0.024215625 -0.00125 -0.024215625 0.0138696939255
337 1 -0.024215625 -0.00125 -0.023034375 0.123928325831
338 1 -0.024215625 -0.00125 -0.021853125 0.0999860491522
339 1 -0.024215625 -0.00125 -0.020671875 0.091233852548
340 1 -0.024215625 -0.00125 -0.019490625 0.332327115976
341 1 -0.024215625 -0.00125 -0.018309375 0.678804021823
342 1 -0.024215625 -0.00125 -0.017128125 0.488812258104
343 1 -0.024215625 -0.00125 -0.015946875 0.747283490098
344 1 -0.024215625 -0.00125 -0.014765625 0.459722771872
345 1 -0.024215625 -0.00125 -0.013584375 0.395964423221
346 1 -0.024215625 -0.00125 -0.012403125 0.332326556717
347 1 -0.024215625 -0.00125 -0.011221875 0.196692230435
348 1 -0.024215625 -0.00125 -0.010040625 0.01386971523
349 1 -0.024215625 -0.00125 -0.008859375 4.52220221462e-06
350 1 -0.024215625 -0.00125 -0.007678125 0.000126658700522
351 1 -0.024215625 -0.00125 -0.006496875 0.0529662928778
352 1 -0.024215625 -0.00125 -0.005315625 0.0347170407724
353 1 -0.024215625 -0.00125 -0.004134375 0.252717013204
354 1 -0.024215625 -0.00125 -0.002953125 0.133535525963
355 1 -0.024215625 -0.00125 -0.001771875 0.00668182974929
356 1 -0.024215625 -0.00125 -0.000590625 0.000299132858986
357 1 -0.024215625 -0.00125 0.000590625 0.00668182524144
358 1 -0.024215625 -0.00125 0.001771875 0.114532075754
359 1 -0.024215625 -0.00125 0.002953125 0.372493358291
360 1 -0.024215625 -0.00125 0.004134375 0.441823107051
361 1 -0.024215625 -0.00125 0.005315625 0.321196490136
362 1 -0.024215625 -0.00125 0.006496875 0.514543979749
363 1 -0.024215625 -0.00125 0.007678125 0.0698876476892
364 1 -0.024215625 -0.00125 0.008859375 0.0138696939255
365 1 -0.024215625 -0.00125 0.010040625 0.0138696939255
366 1 -0.024215625 -0.00125 0.011221875 0.0138696939255
367 1 -0.024215625 -0.00125 0.012403125 0.0509111013046
368 1 -0.024215625 -0.00125 0.013584375 0.066041103006
369 1 -0.024215625 -0.00125 0.014765625 0.292342717184
370 1 -0.024215625 -0.00125 0.015946875 0.620802845142
371 1 -0.024215625 -0.00125 0.017128125 0.241806908695
372 1 -0.024215625 -0.00125 0.018309375 0.0443322841124
373 1 -0.024215625 -0.00125 0.019490625 1.28754471296e-08
374 1 -0.024215625 -0.00125 0.020671875 0.0
375 1 -0.024215625 -0.00125 0.021853125 0.0
376 1 -0.024215625 -0.00125 0.023034375 0.0
377 1 -0.024215625 -0.00125 0.024215625 0.0
378 1 -0.024215625 -0.00125 0.025396875 0.0
379 1 -0.024215625 -0.00125 0.026578125 0.0
380 1 -0.024215625 -0.00125 0.027759375 0.0
381 1 -0.023034375 -0.00125 -0.027759375 0.00106278235535
382 1 -0.023034375 -0.00125 -0.026578125 1.74014005978e-11
383 1 -0.023034375 -0.00125 -0.025396875 4.52220221462e-06
384 1 -0.023034375 -0.00125 -0.024215625 0.0443322841124
385 1 -0.023034375 -0.00125 -0.023034375 0.10900325236
386 1 -0.023034375 -0.00125 -0.021853125 0.0999860491522
387 1 -0.023034375 -0.00125 -0.020671875 0.235287296038
388 1 -0.023034375 -0.00125 -0.019490625 0.159358746116
389 1 -0.023034375 -0.00125 -0.018309375 0.701012014606
390 1 -0.023034375 -0.00125 -0.017128125 0.718709829977
391 1 -0.023034375 -0.00125 -0.015946875 0.922159681911
392 1 -0.023034375 -0.00125 -0.014765625 0.616331960961
393 1 -0.023034375 -0.00125 -0.013584375 0.107179814045
394 1 -0.023034375 -0.00125 -0.012403125 0.057902305032
395 1 -0.023034375 -0.00125 -0.011221875 0.0999860491522
396 1 -0.023034375 -0.00125 -0.010040625 0.0443322841124
397 1 -0.023034375 -0.00125 -0.008859375 0.000891017573599
398 1 -0.023034375 -0.00125 -0.007678125 0.0138696939255
399 1 -0.023034375 -0.00125 -0.006496875 0.0955755932906
400 1 -0.023034375 -0.00125 -0.005315625 0.0443323240644
401 1 -0.023034375 -0.00125 -0.004134375 0.0778403180889
402 1 -0.023034375 -0.00125 -0.002953125 0.000126657572948
403 1 -0.023034375 -0.00125 -0.001771875 1.74019667629e-11
404 1 -0.023034375 -0.00125 -0.000590625 4.52227625942e-06
405 1 -0.023034375 -0.00125 0.000590625 5.56343983788e-05
406 1 -0.023034375 -0.00125 0.001771875 0.169569831299
407 1 -0.023034375 -0.00125 0.002953125 0.252716464147
408 1 -0.023034375 -0.00125 0.004134375 0.482099221396
409 1 -0.023034375 -0.00125 0.005315625 0.718709829977
410 1 -0.023034375 -0.00125 0.006496875 0.470911218712
411 1 -0.023034375 -0.00125 0.007678125 0.0698876476892
412 1 -0.023034375 -0.00125 0.008859375 0.0509111013046
413 1 -0.023034375 -0.00125 0.010040625 0.0138696939255
414 1 -0.023034375 -0.00125 0.011221875 0.0293069007767
415 1 -0.023034375 -0.00125 0.012403125 0.0698876476892
416 1 -0.023034375 -0.00125 0.013584375 0.470910984646
417 1 -0.023034375 -0.00125 0.014765625 0.660987899129
418 1 -0.023034375 -0.00125 0.015946875 0.332327069371
419 1 -0.023034375 -0.00125 0.017128125 0.114532114604
420 1 -0.023034375 -0.00125 0.018309375 0.00474644221021
421 1 -0.023034375 -0.00125 0.019490625 2.79378975481e-22
422 1 -0.023034375 -0.00125 0.020671875 0.0
423 1 -0.023034375 -0.00125 0.021853125 0.0
424 1 -0.023034375 -0.00125 0.023034375 0.0
425 1 -0.023034375 -0.00125 0.024215625 0.0
426 1 -0.023034375 -0.00125 0.025396875 0.0
427 1 -0.023034375 -0.00125 0.026578125 1.28754471296e-08
428 1 -0.023034375 -0.00125 0.027759375 0.00106278235535
429 1 -0.021853125 -0.00125 -0.028940625 0.446450460541
430 1 -0.021853125 -0.00125 -0.027759375 0.232162758618
431 1 -0.021853125 -0.00125 -0.026578125 3.07879020573e-05
432 1 -0.021853125 -0.00125 -0.025396875 4.52220221462e-06
433 1 -0.021853125 -0.00125 -0.024215625 0.000126658700522
434 1 -0.021853125 -0.00125 -0.023034375 0.0293069224194
435 1 -0.021853125 -0.00125 -0.021853125 0.0698876802493
436 1 -0.021853125 -0.00125 -0.020671875 0.292343226566
437 1 -0.021853125 -0.00125 -0.019490625 0.186171278084
438 1 -0.021853125 -0.00125 -0.018309375 0.321195978177
439 1 -0.021853125 -0.00125 -0.017128125 0.620802845142
440 1 -0.021853125 -0.00125 -0.015946875 0.638674944179
441 1 -0.021853125 -0.00125 -0.014765625 0.430635859907
442 1 -0.021853125 -0.00125 -0.013584375 0.00284459563651
443 1 -0.021853125 -0.00125 -0.012403125 0.0175125891118
444 1 -0.021853125 -0.00125 -0.011221875 0.0509111439139
445 1 -0.021853125 -0.00125 -0.010040625 0.114532075754
446 1 -0.021853125 -0.00125 -0.008859375 0.13939146749
447 1 -0.021853125 -0.00125 -0.007678125 0.292342717184
448 1 -0.021853125 -0.00125 -0.006496875 0.183036213405
449 1 -0.021853125 -0.00125 -0.005315625 0.00154813293271
450 1 -0.021853125 -0.00125 -0.004134375 4.42606186288e-05
451 1 -0.021853125 -0.00125 -0.002953125 1.74019667629e-11
452 1 -0.021853125 -0.00125 -0.001771875 0.0
453 1 -0.021853125 -0.00125 -0.000590625 4.52227625942e-06
454 1 -0.021853125 -0.00125 0.000590625 0.0424421516307
455 1 -0.021853125 -0.00125 0.001771875 0.5
456 1 -0.021853125 -0.00125 0.002953125 0.540276713188
457 1 -0.021853125 -0.00125 0.004134375 0.689917920485
458 1 -0.021853125 -0.00125 0.005315625 0.620802845142
459 1 -0.021853125 -0.00125 0.006496875 0.31785993773
460 1 -0.021853125 -0.00125 0.007678125 0.17575893658
461 1 -0.021853125 -0.00125 0.008859375 0.0698876476892
462 1 -0.021853125 -0.00125 0.010040625 0.0509111013046
463 1 -0.021853125 -0.00125 0.011221875 0.0509111013046
464 1 -0.021853125 -0.00125 0.012403125 0.361325055821
465 1 -0.021853125 -0.00125 0.013584375 0.5
466 1 -0.021853125 -0.00125 0.014765625 0.609625938955
467 1 -0.021853125 -0.00125 0.015946875 0.186171540908
468 1 -0.021853125 -0.00125 0.017128125 0.0912339065983
469 1 -0.021853125 -0.00125 0.018309375 0.00474644221021
470 1 -0.021853125 -0.00125 0.019490625 0.0
471 1 -0.021853125 -0.00125 0.020671875 0.0
472 1 -0.021853125 -0.00125 0.021853125 0.0
473 1 -0.021853125 -0.00125 0.023034375 0.0
474 1 -0.021853125 -0.00125 0.024215625 0.0
475 1 -0.021853125 -0.00125 0.025396875 0.0
476 1 -0.021853125 -0.00125 0.026578125 0.0
477 1 -0.021853125 -0.00125 0.027759375 0.00147478389665
478 1 -0.021853125 -0.00125 0.028940625 0.00466864259094
479 1 -0.020671875 -0.00125 -0.030121875 0.00466864259094
480 1 -0.020671875 -0.00125 -0.028940625 0.150411393909
481 1 -0.020671875 -0.00125 -0.027759375 0.87607171394
482 1 -0.020671875 -0.00125 -0.026578125 0.210511756665
483 1 -0.020671875 -0.00125 -0.025396875 0.01386971523
484 1 -0.020671875 -0.00125 -0.024215625 0.0443323240644
485 1 -0.020671875 -0.00125 -0.023034375 0.114532075754
486 1 -0.020671875 -0.00125 -0.021853125 0.21372123369
487 1 -0.020671875 -0.00125 -0.020671875 0.321196490136
488 1 -0.020671875 -0.00125 -0.019490625 0.258189948267
489 1 -0.020671875 -0.00125 -0.018309375 0.159358746116
490 1 -0.020671875 -0.00125 -0.017128125 0.459723333625
491 1 -0.020671875 -0.00125 -0.015946875 0.529089062167
492 1 -0.020671875 -0.00125 -0.014765625 0.5
493 1 -0.020671875 -0.00125 -0.013584375 0.0509113711638
494 1 -0.020671875 -0.00125 -0.012403125 4.52227625942e-06
495 1 -0.020671875 -0.00125 -0.011221875 0.000299131636816
496 1 -0.020671875 -0.00125 -0.010040625 0.0509111439139
497 1 -0.020671875 -0.00125 -0.008859375 0.14929428164
498 1 -0.020671875 -0.00125 -0.007678125 0.203051971158
499 1 -0.020671875 -0.00125 -0.006496875 0.0529663073376
500 1 -0.020671875 -0.00125 -0.005315625 6.01557630165e-07
501 1 -0.020671875 -0.00125 -0.004134375 0.0
502 1 -0.020671875 -0.00125 -0.002953125 1.74019667629e-11
503 1 -0.020671875 -0.00125 -0.001771875 1.22156214432e-15
504 1 -0.020671875 -0.00125 -0.000590625 0.00154812961495
505 1 -0.020671875 -0.00125 0.000590625 0.172658517246
506 1 -0.020671875 -0.00125 0.001771875 0.769047847884
507 1 -0.020671875 -0.00125 0.002953125 0.70101210735
508 1 -0.020671875 -0.00125 0.004134375 0.551464650233
509 1 -0.020671875 -0.00125 0.005315625 0.419449528188
510 1 -0.020671875 -0.00125 0.006496875 0.263674497482
511 1 -0.020671875 -0.00125 0.007678125 0.0509111013046
512 1 -0.020671875 -0.00125 0.008859375 0.0999860491522
513 1 -0.020671875 -0.00125 0.010040625 0.235286796702
514 1 -0.020671875 -0.00125 0.011221875 0.430635345024
515 1 -0.020671875 -0.00125 0.012403125 0.830430598761
516 1 -0.020671875 -0.00125 0.013584375 0.525732272242
517 1 -0.020671875 -0.00125 0.014765625 0.0827704306511
518 1 -0.020671875 -0.00125 0.015946875 0.0199375341518
519 1 -0.020671875 -0.00125 0.017128125 0.0381872278205
520 1 -0.020671875 -0.00125 0.018309375 0.00668182974929
521 1 -0.020671875 -0.00125 0.019490625 0.0
522 1 -0.020671875 -0.00125 0.020671875 0.0
523 1 -0.020671875 -0.00125 0.021853125 0.0
524 1 -0.020671875 -0.00125 0.023034375 0.0
525 1 -0.020671875 -0.00125 0.024215625 0.0
526 1 -0.020671875 -0.00125 0.025396875 0.0
527 1 -0.020671875 -0.00125 0.026578125 0.0
528 1 -0.020671875 -0.00125 0.027759375 0.0
529 1 -0.020671875 -0.00125 0.028940625 8.26663545308e-15
530 1 -0.020671875 -0.00125 0.030121875 0.0
531 1 -0.019490625 -0.00125 -0.031303125 0.0222222867114
532 1 -0.019490625 -0.00125 -0.030121875 0.00044291401093
533 1 -0.019490625 -0.00125 -0.028940625 0.0156289371363
534 1 -0.019490625 -0.00125 -0.027759375 0.229870432812
535 1 -0.019490625 -0.00125 -0.026578125 0.28957739701
536 1 -0.019490625 -0.00125 -0.025396875 0.366908379458
537 1 -0.019490625 -0.00125 -0.024215625 0.306751493137
538 1 -0.019490625 -0.00125 -0.023034375 0.355743098645
539 1 -0.019490625 -0.00125 -0.021853125 0.332327069371
540 1 -0.019490625 -0.00125 -0.020671875 0.419449809004
541 1 -0.019490625 -0.00125 -0.019490625 0.66711617114
542 1 -0.019490625 -0.00125 -0.018309375 0.164447052173
543 1 -0.019490625 -0.00125 -0.017128125 0.151294576826
544 1 -0.019490625 -0.00125 -0.015946875 0.154307310461
545 1 -0.019490625 -0.00125 -0.014765625 0.236372108528