ITEM: TIMESTEP
0
ITEM: NUMBER OF ATOMS
3080
ITEM: BOX BOUNDS ss ss ss
-3.7007399999999996e-02 3.7007399999999996e-02
-2.0002499999999999e-03 2.5000000000000004e-07
-3.7007399999999996e-02 3.7007399999999996e-02
ITEM: ATOMS id type x y z c_1
0 1 -0.037209375 -0.00125 -0.000590625 1.0
1 1 -0.036028125 -0.00125 -0.007678125 0.00920066229086
2 1 -0.036028125 -0.00125 -0.006496875 0.0
3 1 -0.036028125 -0.00125 -0.005315625 0.0
4 1 -0.036028125 -0.00125 -0.004134375 0.0
5 1 -0.036028125 -0.00125 -0.002953125 0.00021629040297
6 1 -0.036028125 -0.00125 -0.001771875 0.226627684957
7 1 -0.036028125 -0.00125 -0.000590625 0.182529172436
8 1 -0.036028125 -0.00125 0.000590625 0.0
9 1 -0.036028125 -0.00125 0.001771875 0.0
10 1 -0.036028125 -0.00125 0.002953125 0.0
11 1 -0.036028125 -0.00125 0.004134375 0.0
12 1 -0.036028125 -0.00125 0.005315625 0.0
13 1 -0.036028125 -0.00125 0.006496875 0.0
14 1 -0.036028125 -0.00125 0.007678125 0.0
15 1 -0.034846875 -0.00125 -0.011221875 0.00920066229086
16 1 -0.034846875 -0.00125 -0.010040625 0.0
17 1 -0.034846875 -0.00125 -0.008859375 0.320687946562
18 1 -0.034846875 -0.00125 -0.007678125 0.112788508618
19 1 -0.034846875 -0.00125 -0.006496875 0.0
20 1 -0.034846875 -0.00125 -0.005315625 0.0
21 1 -0.034846875 -0.00125 -0.004134375 0.0
22 1 -0.034846875 -0.00125 -0.002953125 0.000126658700522
23 1 -0.034846875 -0.00125 -0.001771875 0.303422785529
24 1 -0.034846875 -0.00125 -0.000590625 0.123928325831
25 1 -0.034846875 -0.00125 0.000590625 1.40785443464e-30
26 1 -0.034846875 -0.00125 0.001771875 0.0
27 1 -0.034846875 -0.00125 0.002953125 0.0
28 1 -0.034846875 -0.00125 0.004134375 0.0
29 1 -0.034846875 -0.00125 0.005315625 0.0
30 1 -0.034846875 -0.00125 0.006496875 0.0
31 1 -0.034846875 -0.00125 0.007678125 0.0
32 1 -0.034846875 -0.00125 0.008859375 0.0
33 1 -0.034846875 -0.00125 0.010040625 0.0
34 1 -0.034846875 -0.00125 0.011221875 0.0
35 1 -0.033665625 -0.00125 -0.013584375 5.72529236729e-05
36 1 -0.033665625 -0.00125 -0.012403125 0.320687946562
37 1 -0.033665625 -0.00125 -0.011221875 0.139045586722
38 1 -0.033665625 -0.00125 -0.010040625 1.22156214432e-15
39 1 -0.033665625 -0.00125 -0.008859375 0.186171540908
40 1 -0.033665625 -0.00125 -0.007678125 0.224469737872
41 1 -0.033665625 -0.00125 -0.006496875 2.79378975481e-22
42 1 -0.033665625 -0.00125 -0.005315625 0.0
43 1 -0.033665625 -0.00125 -0.004134375 0.0
44 1 -0.033665625 -0.00125 -0.002953125 1.74019667629e-11
45 1 -0.033665625 -0.00125 -0.001771875 0.123928325831
46 1 -0.033665625 -0.00125 -0.000590625 0.21372123369
47 1 -0.033665625 -0.00125 0.000590625 1.28754471296e-08
48 1 -0.033665625 -0.00125 0.001771875 0.0
49 1 -0.033665625 -0.00125 0.002953125 0.0
50 1 -0.033665625 -0.00125 0.004134375 0.0
51 1 -0.033665625 -0.00125 0.005315625 0.0
52 1 -0.033665625 -0.00125 0.006496875 0.0
53 1 -0.033665625 -0.00125 0.007678125 0.0
54 1 -0.033665625 -0.00125 0.008859375 0.0
55 1 -0.033665625 -0.00125 0.010040625 0.0
56 1 -0.033665625 -0.00125 0.011221875 0.0
57 1 -0.033665625 -0.00125 0.012403125 1.63558782507e-05
58 1 -0.033665625 -0.00125 0.013584375 0.0
59 1 -0.032484375 -0.00125 -0.018309375 0.000455413315469
60 1 -0.032484375 -0.00125 -0.017128125 0.0075399670332
61 1 -0.032484375 -0.00125 -0.015946875 0.000216688883757
62 1 -0.032484375 -0.00125 -0.014765625 0.00770073084263
63 1 -0.032484375 -0.00125 -0.013584375 5.26260340032e-06
64 1 -0.032484375 -0.00125 -0.012403125 0.167516386218
65 1 -0.032484375 -0.00125 -0.011221875 0.306751214506
66 1 -0.032484375 -0.00125 -0.010040625 0.0
67 1 -0.032484375 -0.00125 -0.008859375 0.0564721694534
68 1 -0.032484375 -0.00125 -0.007678125 0.292342717184
69 1 -0.032484375 -0.00125 -0.006496875 1.10040129455e-05
70 1 -0.032484375 -0.00125 -0.005315625 0.0
71 1 -0.032484375 -0.00125 -0.004134375 0.0
72 1 -0.032484375 -0.00125 -0.002953125 0.0
73 1 -0.032484375 -0.00125 -0.001771875 0.000126657572948
74 1 -0.032484375 -0.00125 -0.000590625 0.159359255263
75 1 -0.032484375 -0.00125 0.000590625 0.0300882065583
76 1 -0.032484375 -0.00125 0.001771875 0.0
77 1 -0.032484375 -0.00125 0.002953125 0.0
78 1 -0.032484375 -0.00125 0.004134375 0.0
79 1 -0.032484375 -0.00125 0.005315625 0.0
80 1 -0.032484375 -0.00125 0.006496875 0.0
81 1 -0.032484375 -0.00125 0.007678125 0.0
82 1 -0.032484375 -0.00125 0.008859375 0.0
83 1 -0.032484375 -0.00125 0.010040625 1.74019667629e-11
84 1 -0.032484375 -0.00125 0.011221875 1.74014005978e-11
85 1 -0.032484375 -0.00125 0.012403125 0.000126657572948
86 1 -0.032484375 -0.00125 0.013584375 0.00821099769794
87 1 -0.032484375 -0.00125 0.014765625 6.0154364058e-07
88 1 -0.032484375 -0.00125 0.015946875 2.56728544141e-12
89 1 -0.032484375 -0.00125 0.017128125 5.44412977554e-09
90 1 -0.032484375 -0.00125 0.018309375 0.0
91 1 -0.031303125 -0.00125 -0.019490625 0.000209614639352
92 1 -0.031303125 -0.00125 -0.018309375 1.18026294841e-10
93 1 -0.031303125 -0.00125 -0.017128125 1.22156214432e-15
94 1 -0.031303125 -0.00125 -0.015946875 0.0
95 1 -0.031303125 -0.00125 -0.014765625 0.000126657572948
96 1 -0.031303125 -0.00125 -0.013584375 1.74014005978e-11
97 1 -0.031303125 -0.00125 -0.012403125 0.091233852548
98 1 -0.031303125 -0.00125 -0.011221875 0.186171540908
99 1 -0.031303125 -0.00125 -0.010040625 0.0
100 1 -0.031303125 -0.00125 -0.008859375 0.000891017573599
101 1 -0.031303125 -0.00125 -0.007678125 0.133535038668
102 1 -0.031303125 -0.00125 -0.006496875 0.0308802609667
103 1 -0.031303125 -0.00125 -0.005315625 0.0
104 1 -0.031303125 -0.00125 -0.004134375 0.0
105 1 -0.031303125 -0.00125 -0.002953125 0.0
106 1 -0.031303125 -0.00125 -0.001771875 0.0
107 1 -0.031303125 -0.00125 -0.000590625 6.01557630165e-07
108 1 -0.031303125 -0.00125 0.000590625 0.0308802609667
109 1 -0.031303125 -0.00125 0.001771875 0.0
110 1 -0.031303125 -0.00125 0.002953125 0.0
111 1 -0.031303125 -0.00125 0.004134375 0.0
112 1 -0.031303125 -0.00125 0.005315625 0.0
113 1 -0.031303125 -0.00125 0.006496875 0.0
114 1 -0.031303125 -0.00125 0.007678125 0.0
115 1 -0.031303125 -0.00125 0.008859375 1.74019667629e-11
116 1 -0.031303125 -0.00125 0.010040625 0.00154812961495
117 1 -0.031303125 -0.00125 0.011221875 0.00474644221021
118 1 -0.031303125 -0.00125 0.012403125 0.0293069007767
119 1 -0.031303125 -0.00125 0.013584375 0.0243766776135
120 1 -0.031303125 -0.00125 0.014765625 1.74019667629e-11
121 1 -0.031303125 -0.00125 0.015946875 0.0
122 1 -0.031303125 -0.00125 0.017128125 0.0
123 1 -0.031303125 -0.00125 0.018309375 1.61610918776e-06
124 1 -0.031303125 -0.00125 0.019490625 0.0
125 1 -0.030121875 -0.00125 -0.020671875 0.00466864259094
126 1 -0.030121875 -0.00125 -0.019490625 0.0874381251346
127 1 -0.030121875 -0.00125 -0.018309375 0.0
128 1 -0.030121875 -0.00125 -0.017128125 0.0
129 1 -0.030121875 -0.00125 -0.015946875 0.0
130 1 -0.030121875 -0.00125 -0.014765625 1.74019667629e-11
131 1 -0.030121875 -0.00125 -0.013584375 2.79378975481e-22
132 1 -0.030121875 -0.00125 -0.012403125 0.00154813293271
133 1 -0.030121875 -0.00125 -0.011221875 1.74019667629e-11
134 1 -0.030121875 -0.00125 -0.010040625 1.74019667629e-11
135 1 -0.030121875 -0.00125 -0.008859375 1.74019667629e-11
136 1 -0.030121875 -0.00125 -0.007678125 0.0999860491522
137 1 -0.030121875 -0.00125 -0.006496875 0.0622852495443
138 1 -0.030121875 -0.00125 -0.005315625 0.0
139 1 -0.030121875 -0.00125 -0.004134375 0.0
140 1 -0.030121875 -0.00125 -0.002953125 0.0
141 1 -0.030121875 -0.00125 -0.001771875 0.0
142 1 -0.030121875 -0.00125 -0.000590625 0.0
143 1 -0.030121875 -0.00125 0.000590625 1.77729209249e-06
144 1 -0.030121875 -0.00125 0.001771875 0.0
145 1 -0.030121875 -0.00125 0.002953125 0.0
146 1 -0.030121875 -0.00125 0.004134375 0.0
147 1 -0.030121875 -0.00125 0.005315625 0.0
148 1 -0.030121875 -0.00125 0.006496875 0.0
149 1 -0.030121875 -0.00125 0.007678125 0.0
150 1 -0.030121875 -0.00125 0.008859375 0.000126657572948
151 1 -0.030121875 -0.00125 0.010040625 0.0293069007767
152 1 -0.030121875 -0.00125 0.011221875 0.0293069224194
153 1 -0.030121875 -0.00125 0.012403125 0.0550579936718
154 1 -0.030121875 -0.00125 0.013584375 0.00349873230876
155 1 -0.030121875 -0.00125 0.014765625 0.0
156 1 -0.030121875 -0.00125 0.015946875 1.74019667629e-11
157 1 -0.030121875 -0.00125 0.017128125 0.0
158 1 -0.030121875 -0.00125 0.018309375 0.000126658700522
159 1 -0.030121875 -0.00125 0.019490625 1.28752206004e-08
160 1 -0.030121875 -0.00125 0.020671875 0.0
161 1 -0.028940625 -0.00125 -0.021853125 0.0904523633156
162 1 -0.028940625 -0.00125 -0.020671875 0.0328183764962
163 1 -0.028940625 -0.00125 -0.019490625 0.224469737872
164 1 -0.028940625 -0.00125 -0.018309375 0.0
165 1 -0.028940625 -0.00125 -0.017128125 0.0
166 1 -0.028940625 -0.00125 -0.015946875 0.0
167 1 -0.028940625 -0.00125 -0.014765625 0.0
168 1 -0.028940625 -0.00125 -0.013584375 0.0
169 1 -0.028940625 -0.00125 -0.012403125 0.0
170 1 -0.028940625 -0.00125 -0.011221875 0.0
171 1 -0.028940625 -0.00125 -0.010040625 0.0
172 1 -0.028940625 -0.00125 -0.008859375 0.0
173 1 -0.028940625 -0.00125 -0.007678125 0.0293069007767
174 1 -0.028940625 -0.00125 -0.006496875 0.00565998393801
175 1 -0.028940625 -0.00125 -0.005315625 4.52220221462e-06
176 1 -0.028940625 -0.00125 -0.004134375 0.000299131636816
177 1 -0.028940625 -0.00125 -0.002953125 4.52220221462e-06
178 1 -0.028940625 -0.00125 -0.001771875 0.0
179 1 -0.028940625 -0.00125 -0.000590625 0.0
180 1 -0.028940625 -0.00125 0.000590625 0.0
181 1 -0.028940625 -0.00125 0.001771875 1.74019667629e-11
182 1 -0.028940625 -0.00125 0.002953125 0.0
183 1 -0.028940625 -0.00125 0.004134375 0.0
184 1 -0.028940625 -0.00125 0.005315625 1.74019667629e-11
185 1 -0.028940625 -0.00125 0.006496875 0.000535659512892
186 1 -0.028940625 -0.00125 0.007678125 0.00154812961495
187 1 -0.028940625 -0.00125 0.008859375 0.01386971523
188 1 -0.028940625 -0.00125 0.010040625 0.0999860491522
189 1 -0.028940625 -0.00125 0.011221875 0.0698876476892
190 1 -0.028940625 -0.00125 0.012403125 0.0443323240644
191 1 -0.028940625 -0.00125 0.013584375 0.00734859258327
192 1 -0.028940625 -0.00125 0.014765625 0.00474644221021
193 1 -0.028940625 -0.00125 0.015946875 0.00474644221021
194 1 -0.028940625 -0.00125 0.017128125 4.52220221462e-06
195 1 -0.028940625 -0.00125 0.018309375 0.000126658700522
196 1 -0.028940625 -0.00125 0.019490625 1.77731074088e-06
197 1 -0.028940625 -0.00125 0.020671875 0.0
198 1 -0.028940625 -0.00125 0.021853125 0.0
199 1 -0.027759375 -0.00125 -0.024215625 0.0
200 1 -0.027759375 -0.00125 -0.023034375 0.00106278235535
201 1 -0.027759375 -0.00125 -0.021853125 0.000245540111831
202 1 -0.027759375 -0.00125 -0.020671875 0.000126658700522
203 1 -0.027759375 -0.00125 -0.019490625 0.167516386218
204 1 -0.027759375 -0.00125 -0.018309375 1.74019667629e-11
205 1 -0.027759375 -0.00125 -0.017128125 0.0
206 1 -0.027759375 -0.00125 -0.015946875 0.0
207 1 -0.027759375 -0.00125 -0.014765625 0.0
208 1 -0.027759375 -0.00125 -0.013584375 0.0
209 1 -0.027759375 -0.00125 -0.012403125 0.0
210 1 -0.027759375 -0.00125 -0.011221875 0.0
211 1 -0.027759375 -0.00125 -0.010040625 0.0
212 1 -0.027759375 -0.00125 -0.008859375 0.0
213 1 -0.027759375 -0.00125 -0.007678125 4.52220221462e-06
214 1 -0.027759375 -0.00125 -0.006496875 4.52221866893e-06
215 1 -0.027759375 -0.00125 -0.005315625 4.52220221462e-06
216 1 -0.027759375 -0.00125 -0.004134375 0.000299131636816
217 1 -0.027759375 -0.00125 -0.002953125 4.52220221462e-06
218 1 -0.027759375 -0.00125 -0.001771875 0.0
219 1 -0.027759375 -0.00125 -0.000590625 0.0
220 1 -0.027759375 -0.00125 0.000590625 0.0
221 1 -0.027759375 -0.00125 0.001771875 1.74019667629e-11
222 1 -0.027759375 -0.00125 0.002953125 0.0
223 1 -0.027759375 -0.00125 0.004134375 0.0
224 1 -0.027759375 -0.00125 0.005315625 0.000126657572948
225 1 -0.027759375 -0.00125 0.006496875 0.0844389823853
226 1 -0.027759375 -0.00125 0.007678125 0.0443322974297
227 1 -0.027759375 -0.00125 0.008859375 0.0778403520653
228 1 -0.027759375 -0.00125 0.010040625 0.13939146749
229 1 -0.027759375 -0.00125 0.011221875 0.0443323240644
230 1 -0.027759375 -0.00125 0.012403125 0.00668184101894
231 1 -0.027759375 -0.00125 0.013584375 0.0982137037948
232 1 -0.027759375 -0.00125 0.014765625 0.0622852495443
233 1 -0.027759375 -0.00125 0.015946875 0.000891017573599
234 1 -0.027759375 -0.00125 0.017128125 6.01557630165e-07
235 1 -0.027759375 -0.00125 0.018309375 0.000126658700522
236 1 -0.027759375 -0.00125 0.019490625 0.000126658199377
237 1 -0.027759375 -0.00125 0.020671875 0.0
238 1 -0.027759375 -0.00125 0.021853125 0.0
239 1 -0.027759375 -0.00125 0.023034375 0.0
240 1 -0.027759375 -0.00125 0.024215625 0.0
241 1 -0.026578125 -0.00125 -0.026578125 0.0
242 1 -0.026578125 -0.00125 -0.025396875 0.0
243 1 -0.026578125 -0.00125 -0.024215625 0.0
244 1 -0.026578125 -0.00125 -0.023034375 0.0
245 1 -0.026578125 -0.00125 -0.021853125 0.0
246 1 -0.026578125 -0.00125 -0.020671875 0.0
247 1 -0.026578125 -0.00125 -0.019490625 0.268069661807
248 1 -0.026578125 -0.00125 -0.018309375 0.0364314804587
249 1 -0.026578125 -0.00125 -0.017128125 7.02299466978e-08
250 1 -0.026578125 -0.00125 -0.015946875 0.0
251 1 -0.026578125 -0.00125 -0.014765625 0.0
252 1 -0.026578125 -0.00125 -0.013584375 0.0
253 1 -0.026578125 -0.00125 -0.012403125 0.0
254 1 -0.026578125 -0.00125 -0.011221875 0.0
255 1 -0.026578125 -0.00125 -0.010040625 0.0
256 1 -0.026578125 -0.00125 -0.008859375 0.0
257 1 -0.026578125 -0.00125 -0.007678125 0.0
258 1 -0.026578125 -0.00125 -0.006496875 7.49709589486e-44
259 1 -0.026578125 -0.00125 -0.005315625 0.0
260 1 -0.026578125 -0.00125 -0.004134375 0.0
261 1 -0.026578125 -0.00125 -0.002953125 0.0
262 1 -0.026578125 -0.00125 -0.001771875 0.0
263 1 -0.026578125 -0.00125 -0.000590625 1.79799601853e-29
264 1 -0.026578125 -0.00125 0.000590625 1.16024295918e-36
265 1 -0.026578125 -0.00125 0.001771875 0.0
266 1 -0.026578125 -0.00125 0.002953125 0.0
267 1 -0.026578125 -0.00125 0.004134375 0.0
268 1 -0.026578125 -0.00125 0.005315625 6.0154364058e-07
269 1 -0.026578125 -0.00125 0.006496875 0.00212747561021
270 1 -0.026578125 -0.00125 0.007678125 1.74014005978e-11
271 1 -0.026578125 -0.00125 0.008859375 0.00198208844631
272 1 -0.026578125 -0.00125 0.010040625 0.0175126053968
273 1 -0.026578125 -0.00125 0.011221875 0.06007667973
274 1 -0.026578125 -0.00125 0.012403125 0.175759196515
275 1 -0.026578125 -0.00125 0.013584375 0.162407554475
276 1 -0.026578125 -0.00125 0.014765625 0.00228022595935
277 1 -0.026578125 -0.00125 0.015946875 6.01557630165e-07
278 1 -0.026578125 -0.00125 0.017128125 0.0
279 1 -0.026578125 -0.00125 0.018309375 0.000126658700522
280 1 -0.026578125 -0.00125 0.019490625 0.000276458665449
281 1 -0.026578125 -0.00125 0.020671875 6.01557630165e-07
282 1 -0.026578125 -0.00125 0.021853125 0.0
283 1 -0.026578125 -0.00125 0.023034375 0.0
284 1 -0.026578125 -0.00125 0.024215625 0.0
285 1 -0.026578125 -0.00125 0.025396875 0.0
286 1 -0.026578125 -0.00125 0.026578125 0.0
287 1 -0.025396875 -0.00125 -0.026578125 0.0
288 1 -0.025396875 -0.00125 -0.025396875 4.52227625942e-06
289 1 -0.025396875 -0.00125 -0.024215625 0.0
290 1 -0.025396875 -0.00125 -0.023034375 0.0
291 1 -0.025396875 -0.00125 -0.021853125 0.0
292 1 -0.025396875 -0.00125 -0.020671875 1.74019667629e-11
293 1 -0.025396875 -0.00125 -0.019490625 0.149294323427
294 1 -0.025396875 -0.00125 -0.018309375 0.123928325831
295 1 -0.025396875 -0.00125 -0.017128125 0.0
296 1 -0.025396875 -0.00125 -0.015946875 0.0
297 1 -0.025396875 -0.00125 -0.014765625 0.0
298 1 -0.025396875 -0.00125 -0.013584375 0.0
299 1 -0.025396875 -0.00125 -0.012403125 0.0
300 1 -0.025396875 -0.00125 -0.011221875 0.0
301 1 -0.025396875 -0.00125 -0.010040625 0.0
302 1 -0.025396875 -0.00125 -0.008859375 6.01557630165e-07
303 1 -0.025396875 -0.00125 -0.007678125 0.0
304 1 -0.025396875 -0.00125 -0.006496875 1.77729209249e-06
305 1 -0.025396875 -0.00125 -0.005315625 0.00154813293271
306 1 -0.025396875 -0.00125 -0.004134375 0.000299132858986
307 1 -0.025396875 -0.00125 -0.002953125 0.00154813293271
308 1 -0.025396875 -0.00125 -0.001771875 0.00154813293271
309 1 -0.025396875 -0.00125 -0.000590625 0.000198679422043
310 1 -0.025396875 -0.00125 0.000590625 0.000126657572948
311 1 -0.025396875 -0.00125 0.001771875 1.74019667629e-11
312 1 -0.025396875 -0.00125 0.002953125 1.74019667629e-11
313 1 -0.025396875 -0.00125 0.004134375 0.0
314 1 -0.025396875 -0.00125 0.005315625 0.0
315 1 -0.025396875 -0.00125 0.006496875 0.0
316 1 -0.025396875 -0.00125 0.007678125 0.0
317 1 -0.025396875 -0.00125 0.008859375 0.00154813293271
318 1 -0.025396875 -0.00125 0.010040625 0.0293069224194
319 1 -0.025396875 -0.00125 0.011221875 0.0698876476892
320 1 -0.025396875 -0.00125 0.012403125 0.59844434493
321 1 -0.025396875 -0.00125 0.013584375 0.0443322441605
322 1 -0.025396875 -0.00125 0.014765625 6.01557630165e-07
323 1 -0.025396875 -0.00125 0.015946875 1.74019667629e-11
324 1 -0.025396875 -0.00125 0.017128125 0.0
325 1 -0.025396875 -0.00125 0.018309375 0.000126658700522
326 1 -0.025396875 -0.00125 0.019490625 0.00118682600863
327 1 -0.025396875 -0.00125 0.020671875 6.01557630165e-07
328 1 -0.025396875 -0.00125 0.021853125 0.0
329 1 -0.025396875 -0.00125 0.023034375 0.0
330 1 -0.025396875 -0.00125 0.024215625 0.0
331 1 -0.025396875 -0.00125 0.025396875 0.0
332 1 -0.025396875 -0.00125 0.026578125 0.0
333 1 -0.024215625 -0.00125 -0.027759375 0.0
334 1 -0.024215625 -0.00125 -0.026578125 1.77729209249e-06
335 1 -0.024215625 -0.00125 -0.025396875 0.000126658700522
336 1 -0.024215625 -0.00125 -0.024215625 0.000126658700522
337 1 -0.024215625 -0.00125 -0.023034375 0.000126658700522
338 1 -0.024215625 -0.00125 -0.021853125 0.00668182974929
339 1 -0.024215625 -0.00125 -0.020671875 0.0243767952624
340 1 -0.024215625 -0.00125 -0.019490625 0.13450635415
341 1 -0.024215625 -0.00125 -0.018309375 0.186171540908
342 1 -0.024215625 -0.00125 -0.017128125 4.52227625942e-06
343 1 -0.024215625 -0.00125 -0.015946875 0.0
344 1 -0.024215625 -0.00125 -0.014765625 0.0
345 1 -0.024215625 -0.00125 -0.013584375 0.0
346 1 -0.024215625 -0.00125 -0.012403125 0.0
347 1 -0.024215625 -0.00125 -0.011221875 1.74019667629e-11
348 1 -0.024215625 -0.00125 -0.010040625 3.70458005324e-08
349 1 -0.024215625 -0.00125 -0.008859375 0.0243767952624
350 1 -0.024215625 -0.00125 -0.007678125 0.0443322841124
351 1 -0.024215625 -0.00125 -0.006496875 0.0802910104399
352 1 -0.024215625 -0.00125 -0.005315625 0.196692230435
353 1 -0.024215625 -0.00125 -0.004134375 0.123928325831
354 1 -0.024215625 -0.00125 -0.002953125 0.196692230435
355 1 -0.024215625 -0.00125 -0.001771875 0.123928325831
356 1 -0.024215625 -0.00125 -0.000590625 0.180950835502
357 1 -0.024215625 -0.00125 0.000590625 0.169569401239
358 1 -0.024215625 -0.00125 0.001771875 0.175758893257
359 1 -0.024215625 -0.00125 0.002953125 0.114532075754
360 1 -0.024215625 -0.00125 0.004134375 0.00474644221021
361 1 -0.024215625 -0.00125 0.005315625 1.22156214432e-15
362 1 -0.024215625 -0.00125 0.006496875 3.14925560351e-13
363 1 -0.024215625 -0.00125 0.007678125 0.0
364 1 -0.024215625 -0.00125 0.008859375 0.01386971523
365 1 -0.024215625 -0.00125 0.010040625 0.0175125972543
366 1 -0.024215625 -0.00125 0.011221875 0.114532075754
367 1 -0.024215625 -0.00125 0.012403125 0.448535349767
368 1 -0.024215625 -0.00125 0.013584375 0.149294323427
369 1 -0.024215625 -0.00125 0.014765625 6.01557630165e-07
370 1 -0.024215625 -0.00125 0.015946875 0.000126658700522
371 1 -0.024215625 -0.00125 0.017128125 0.000126658700522
372 1 -0.024215625 -0.00125 0.018309375 0.000126658700522
373 1 -0.024215625 -0.00125 0.019490625 0.0138696939255
374 1 -0.024215625 -0.00125 0.020671875 0.000126658700522
375 1 -0.024215625 -0.00125 0.021853125 0.0
376 1 -0.024215625 -0.00125 0.023034375 0.0
377 1 -0.024215625 -0.00125 0.024215625 0.0
378 1 -0.024215625 -0.00125 0.025396875 0.0
379 1 -0.024215625 -0.00125 0.026578125 0.0
380 1 -0.024215625 -0.00125 0.027759375 0.0
381 1 -0.023034375 -0.00125 -0.027759375 0.135201527912
382 1 -0.023034375 -0.00125 -0.026578125 0.0138696939255
383 1 -0.023034375 -0.00125 -0.025396875 0.0138696939255
384 1 -0.023034375 -0.00125 -0.024215625 0.0293069007767
385 1 -0.023034375 -0.00125 -0.023034375 0.0138696939255
386 1 -0.023034375 -0.00125 -0.021853125 0.0698876476892
387 1 -0.023034375 -0.00125 -0.020671875 0.350163267536
388 1 -0.023034375 -0.00125 -0.019490625 0.229870206493
389 1 -0.023034375 -0.00125 -0.018309375 0.361324541927
390 1 -0.023034375 -0.00125 -0.017128125 0.0243767756543
391 1 -0.023034375 -0.00125 -0.015946875 4.52220221462e-06
392 1 -0.023034375 -0.00125 -0.014765625 0.0
393 1 -0.023034375 -0.00125 -0.013584375 2.79378975481e-22
394 1 -0.023034375 -0.00125 -0.012403125 6.01557630165e-07
395 1 -0.023034375 -0.00125 -0.011221875 0.0107214510125
396 1 -0.023034375 -0.00125 -0.010040625 0.0443322841124
397 1 -0.023034375 -0.00125 -0.008859375 0.0964521901881
398 1 -0.023034375 -0.00125 -0.007678125 0.203051971158
399 1 -0.023034375 -0.00125 -0.006496875 0.205179062488
400 1 -0.023034375 -0.00125 -0.005315625 0.263674497482
401 1 -0.023034375 -0.00125 -0.004134375 0.203051971158
402 1 -0.023034375 -0.00125 -0.002953125 0.281290216208
403 1 -0.023034375 -0.00125 -0.001771875 0.252716464147
404 1 -0.023034375 -0.00125 -0.000590625 0.266970044988
405 1 -0.023034375 -0.00125 0.000590625 0.281290216208
406 1 -0.023034375 -0.00125 0.001771875 0.224469737872
407 1 -0.023034375 -0.00125 0.002953125 0.114532114604
408 1 -0.023034375 -0.00125 0.004134375 0.08277044804
409 1 -0.023034375 -0.00125 0.005315625 0.000299132858986
410 1 -0.023034375 -0.00125 0.006496875 0.00284458672872
411 1 -0.023034375 -0.00125 0.007678125 4.52227625942e-06
412 1 -0.023034375 -0.00125 0.008859375 0.0443323240644
413 1 -0.023034375 -0.00125 0.010040625 0.0381872649833
414 1 -0.023034375 -0.00125 0.011221875 0.14929428164
415 1 -0.023034375 -0.00125 0.012403125 0.40155560828
416 1 -0.023034375 -0.00125 0.013584375 0.0107213902548
417 1 -0.023034375 -0.00125 0.014765625 0.000891023127979
418 1 -0.023034375 -0.00125 0.015946875 0.000891023127979
419 1 -0.023034375 -0.00125 0.017128125 0.00474645121499
420 1 -0.023034375 -0.00125 0.018309375 0.00474645121499
421 1 -0.023034375 -0.00125 0.019490625 0.00474645121499
422 1 -0.023034375 -0.00125 0.020671875 0.000126658700522
423 1 -0.023034375 -0.00125 0.021853125 1.74019667629e-11
424 1 -0.023034375 -0.00125 0.023034375 0.0
425 1 -0.023034375 -0.00125 0.024215625 0.0
426 1 -0.023034375 -0.00125 0.025396875 0.0
427 1 -0.023034375 -0.00125 0.026578125 0.0
428 1 -0.023034375 -0.00125 0.027759375 0.00106278235535
429 1 -0.021853125 -0.00125 -0.028940625 0.205275981734
430 1 -0.021853125 -0.00125 -0.027759375 0.440967646734
431 1 -0.021853125 -0.00125 -0.026578125 0.0529663073376
432 1 -0.021853125 -0.00125 -0.025396875 0.0443322841124
433 1 -0.021853125 -0.00125 -0.024215625 0.0293069007767
434 1 -0.021853125 -0.00125 -0.023034375 0.0138696939255
435 1 -0.021853125 -0.00125 -0.021853125 0.0509111013046
436 1 -0.021853125 -0.00125 -0.020671875 0.159358746116
437 1 -0.021853125 -0.00125 -0.019490625 0.410501961931
438 1 -0.021853125 -0.00125 -0.018309375 0.540277181315
439 1 -0.021853125 -0.00125 -0.017128125 0.354627131557
440 1 -0.021853125 -0.00125 -0.015946875 0.00474644221021
441 1 -0.021853125 -0.00125 -0.014765625 1.74019667629e-11
442 1 -0.021853125 -0.00125 -0.013584375 3.14925560351e-13
443 1 -0.021853125 -0.00125 -0.012403125 0.0175125891118
444 1 -0.021853125 -0.00125 -0.011221875 0.0698876476892
445 1 -0.021853125 -0.00125 -0.010040625 0.281290216208
446 1 -0.021853125 -0.00125 -0.008859375 0.139391385346
447 1 -0.021853125 -0.00125 -0.007678125 0.14929428164
448 1 -0.021853125 -0.00125 -0.006496875 0.310081800728
449 1 -0.021853125 -0.00125 -0.005315625 0.21372123369
450 1 -0.021853125 -0.00125 -0.004134375 0.224469737872
451 1 -0.021853125 -0.00125 -0.002953125 0.139391385346
452 1 -0.021853125 -0.00125 -0.001771875 0.159358746116
453 1 -0.021853125 -0.00125 -0.000590625 0.0738216883072
454 1 -0.021853125 -0.00125 0.000590625 0.00322594350264
455 1 -0.021853125 -0.00125 0.001771875 4.52220221462e-06
456 1 -0.021853125 -0.00125 0.002953125 1.74019667629e-11
457 1 -0.021853125 -0.00125 0.004134375 0.000891017573599
458 1 -0.021853125 -0.00125 0.005315625 0.0216537515375
459 1 -0.021853125 -0.00125 0.006496875 0.0207856853608
460 1 -0.021853125 -0.00125 0.007678125 0.00154813293271
461 1 -0.021853125 -0.00125 0.008859375 0.0443322841124
462 1 -0.021853125 -0.00125 0.010040625 0.448535864695
463 1 -0.021853125 -0.00125 0.011221875 0.488812258104
464 1 -0.021853125 -0.00125 0.012403125 0.21372123369
465 1 -0.021853125 -0.00125 0.013584375 0.00037578707255
466 1 -0.021853125 -0.00125 0.014765625 0.000126658700522
467 1 -0.021853125 -0.00125 0.015946875 0.000126658700522
468 1 -0.021853125 -0.00125 0.017128125 6.01557630165e-07
469 1 -0.021853125 -0.00125 0.018309375 0.000126658700522
470 1 -0.021853125 -0.00125 0.019490625 0.0085515641959
471 1 -0.021853125 -0.00125 0.020671875 1.22156214432e-15
472 1 -0.021853125 -0.00125 0.021853125 0.0
473 1 -0.021853125 -0.00125 0.023034375 0.0
474 1 -0.021853125 -0.00125 0.024215625 0.0
475 1 -0.021853125 -0.00125 0.025396875 0.0
476 1 -0.021853125 -0.00125 0.026578125 0.0
477 1 -0.021853125 -0.00125 0.027759375 1.61610918776e-06
478 1 -0.021853125 -0.00125 0.028940625 0.00466864259094
479 1 -0.020671875 -0.00125 -0.030121875 0.000167490860231
480 1 -0.020671875 -0.00125 -0.028940625 0.000245540111831
481 1 -0.020671875 -0.00125 -0.027759375 3.70458005324e-08
482 1 -0.020671875 -0.00125 -0.026578125 0.00037578707255
483 1 -0.020671875 -0.00125 -0.025396875 0.0293069007767
484 1 -0.020671875 -0.00125 -0.024215625 0.01386971523
485 1 -0.020671875 -0.00125 -0.023034375 0.0138696939255
486 1 -0.020671875 -0.00125 -0.021853125 0.0293069007767
487 1 -0.020671875 -0.00125 -0.020671875 0.0698876802493
488 1 -0.020671875 -0.00125 -0.019490625 0.46531714498
489 1 -0.020671875 -0.00125 -0.018309375 0.660987899129
490 1 -0.020671875 -0.00125 -0.017128125 0.459722771872
491 1 -0.020671875 -0.00125 -0.015946875 0.00668182974929
492 1 -0.020671875 -0.00125 -0.014765625 4.52220221462e-06
493 1 -0.020671875 -0.00125 -0.013584375 1.58378774223e-05
494 1 -0.020671875 -0.00125 -0.012403125 0.207309638309
495 1 -0.020671875 -0.00125 -0.011221875 0.321195978177
496 1 -0.020671875 -0.00125 -0.010040625 0.430635859907
497 1 -0.020671875 -0.00125 -0.008859375 0.303423296049
498 1 -0.020671875 -0.00125 -0.007678125 0.339012100871
499 1 -0.020671875 -0.00125 -0.006496875 0.303423063994
500 1 -0.020671875 -0.00125 -0.005315625 0.303422785529
501 1 -0.020671875 -0.00125 -0.004134375 0.235286796702
502 1 -0.020671875 -0.00125 -0.002953125 0.196692230435
503 1 -0.020671875 -0.00125 -0.001771875 0.0509111013046
504 1 -0.020671875 -0.00125 -0.000590625 0.00100194905618
505 1 -0.020671875 -0.00125 0.000590625 0.0
506 1 -0.020671875 -0.00125 0.001771875 0.0
507 1 -0.020671875 -0.00125 0.002953125 1.74019667629e-11
508 1 -0.020671875 -0.00125 0.004134375 0.00668184101894
509 1 -0.020671875 -0.00125 0.005315625 0.0622852805866
510 1 -0.020671875 -0.00125 0.006496875 0.0293069115981
511 1 -0.020671875 -0.00125 0.007678125 0.00474645121499
512 1 -0.020671875 -0.00125 0.008859375 0.114532075754
513 1 -0.020671875 -0.00125 0.010040625 0.68991847806
514 1 -0.020671875 -0.00125 0.011221875 0.482099221396
515 1 -0.020671875 -0.00125 0.012403125 0.0443322841124
516 1 -0.020671875 -0.00125 0.013584375 0.00228021395688
517 1 -0.020671875 -0.00125 0.014765625 0.0293069007767
518 1 -0.020671875 -0.00125 0.015946875 0.123928325831
519 1 -0.020671875 -0.00125 0.017128125 0.123928325831
520 1 -0.020671875 -0.00125 0.018309375 0.091233852548
521 1 -0.020671875 -0.00125 0.019490625 0.258189948267
522 1 -0.020671875 -0.00125 0.020671875 0.01386971523
523 1 -0.020671875 -0.00125 0.021853125 0.000126658700522
524 1 -0.020671875 -0.00125 0.023034375 0.0
525 1 -0.020671875 -0.00125 0.024215625 0.0
526 1 -0.020671875 -0.00125 0.025396875 0.0
527 1 -0.020671875 -0.00125 0.026578125 0.0
528 1 -0.020671875 -0.00125 0.027759375 0.0
529 1 -0.020671875 -0.00125 0.028940625 1.61610918776e-06
530 1 -0.020671875 -0.00125 0.030121875 0.0
531 1 -0.019490625 -0.00125 -0.031303125 2.66892347814e-17
532 1 -0.019490625 -0.00125 -0.030121875 2.79378975481e-22
533 1 -0.019490625 -0.00125 -0.028940625 0.00284459563651
534 1 -0.019490625 -0.00125 -0.027759375 0.00566000619181
535 1 -0.019490625 -0.00125 -0.026578125 0.000159509653872
536 1 -0.019490625 -0.00125 -0.025396875 0.00474645121499
537 1 -0.019490625 -0.00125 -0.024215625 0.0293069224194
538 1 -0.019490625 -0.00125 -0.023034375 0.0443322841124
539 1 -0.019490625 -0.00125 -0.021853125 0.0293069007767
540 1 -0.019490625 -0.00125 -0.020671875 0.0167442623901
541 1 -0.019490625 -0.00125 -0.019490625 0.286813049125
542 1 -0.019490625 -0.00125 -0.018309375 0.554820744781
543 1 -0.019490625 -0.00125 -0.017128125 0.485455224423
544 1 -0.019490625 -0.00125 -0.015946875 0.11175699854
545 1 -0.019490625 -0.00125 -0.014765625 0.292343272873
546 1 -0.019490625 -0.00125 -0.013584375 0.253810469512
547 1 -0.019490625 -0.00125 -0.012403125 0.199867928267
548 1 -0.019490625 -0.00125 -0.011221875 0.337897955943
549 1 -0.019490625 -0.00125 -0.010040625 0.357975986248
550 1 -0.019490625 -0.00125 -0.008859375 0.15935900069
551 1 -0.019490625 -0.00125 -0.007678125 0.0509111013046
552 1 -0.019490625 -0.00125 -0.006496875 0.0311465687001
553 1 -0.019490625 -0.00125 -0.005315625 0.0347170171512
554 1 -0.019490625 -0.00125 -0.004134375 0.0253237348311
555 1 -0.019490625 -0.00125 -0.002953125 0.0034987279089
556 1 -0.019490625 -0.00125 -0.001771875 6.0154364058e-07
557 1 -0.019490625 -0.00125 -0.000590625 0.000364006799932
558 1 -0.019490625 -0.00125 0.000590625 2.94895880269e-40
559 1 -0.019490625 -0.00125 0.001771875 0.00154812961495
560 1 -0.019490625 -0.00125 0.002953125 0.233118531591
561 1 -0.019490625 -0.00125 0.004134375 0.247255270615
562 1 -0.019490625 -0.00125 0.005315625 0.416094353373
563 1 -0.019490625 -0.00125 0.006496875 0.338455129868
564 1 -0.019490625 -0.00125 0.007678125 0.51454454151
565 1 -0.019490625 -0.00125 0.008859375 0.629740855681