ITEM: TIMESTEP
0
ITEM: NUMBER OF ATOMS
3080
ITEM: BOX BOUNDS ss ss ss
-3.7007399999999996e-02 3.7007399999999996e-02
-2.0002499999999999e-03 2.5000000000000004e-07
-3.7007399999999996e-02 3.7007399999999996e-02
ITEM: ATOMS id type x y z c_1
0 1 -0.037209375 -0.00125 -0.000590625 0.0
1 1 -0.036028125 -0.00125 -0.007678125 0.0
2 1 -0.036028125 -0.00125 -0.006496875 0.0
3 1 -0.036028125 -0.00125 -0.005315625 0.0
4 1 -0.036028125 -0.00125 -0.004134375 0.0
5 1 -0.036028125 -0.00125 -0.002953125 0.0
6 1 -0.036028125 -0.00125 -0.001771875 0.0
7 1 -0.036028125 -0.00125 -0.000590625 0.0
8 1 -0.036028125 -0.00125 0.000590625 0.0
9 1 -0.036028125 -0.00125 0.001771875 0.0
10 1 -0.036028125 -0.00125 0.002953125 0.0
11 1 -0.036028125 -0.00125 0.004134375 0.0
12 1 -0.036028125 -0.00125 0.005315625 0.0
13 1 -0.036028125 -0.00125 0.006496875 0.0
14 1 -0.036028125 -0.00125 0.007678125 0.0
15 1 -0.034846875 -0.00125 -0.011221875 0.0
16 1 -0.034846875 -0.00125 -0.010040625 0.0
17 1 -0.034846875 -0.00125 -0.008859375 0.0
18 1 -0.034846875 -0.00125 -0.007678125 0.0
19 1 -0.034846875 -0.00125 -0.006496875 0.0
20 1 -0.034846875 -0.00125 -0.005315625 0.0
21 1 -0.034846875 -0.00125 -0.004134375 0.0
22 1 -0.034846875 -0.00125 -0.002953125 0.0
23 1 -0.034846875 -0.00125 -0.001771875 0.0
24 1 -0.034846875 -0.00125 -0.000590625 0.0
25 1 -0.034846875 -0.00125 0.000590625 0.0
26 1 -0.034846875 -0.00125 0.001771875 0.0
27 1 -0.034846875 -0.00125 0.002953125 0.0
28 1 -0.034846875 -0.00125 0.004134375 0.0
29 1 -0.034846875 -0.00125 0.005315625 1.74019667629e-11
30 1 -0.034846875 -0.00125 0.006496875 3.14925560351e-13
31 1 -0.034846875 -0.00125 0.007678125 1.61610918776e-06
32 1 -0.034846875 -0.00125 0.008859375 0.0
33 1 -0.034846875 -0.00125 0.010040625 0.0
34 1 -0.034846875 -0.00125 0.011221875 0.0
35 1 -0.033665625 -0.00125 -0.013584375 0.0
36 1 -0.033665625 -0.00125 -0.012403125 0.0
37 1 -0.033665625 -0.00125 -0.011221875 0.0
38 1 -0.033665625 -0.00125 -0.010040625 0.0
39 1 -0.033665625 -0.00125 -0.008859375 0.0
40 1 -0.033665625 -0.00125 -0.007678125 0.0
41 1 -0.033665625 -0.00125 -0.006496875 0.0
42 1 -0.033665625 -0.00125 -0.005315625 0.0
43 1 -0.033665625 -0.00125 -0.004134375 0.0
44 1 -0.033665625 -0.00125 -0.002953125 0.0
45 1 -0.033665625 -0.00125 -0.001771875 0.0
46 1 -0.033665625 -0.00125 -0.000590625 0.0
47 1 -0.033665625 -0.00125 0.000590625 0.0
48 1 -0.033665625 -0.00125 0.001771875 0.0
49 1 -0.033665625 -0.00125 0.002953125 0.0
50 1 -0.033665625 -0.00125 0.004134375 6.01557630165e-07
51 1 -0.033665625 -0.00125 0.005315625 0.00474645121499
52 1 -0.033665625 -0.00125 0.006496875 0.0443322841124
53 1 -0.033665625 -0.00125 0.007678125 0.00474645121499
54 1 -0.033665625 -0.00125 0.008859375 4.52227625942e-06
55 1 -0.033665625 -0.00125 0.010040625 0.0347170407724
56 1 -0.033665625 -0.00125 0.011221875 0.0195453344755
57 1 -0.033665625 -0.00125 0.012403125 0.0
58 1 -0.033665625 -0.00125 0.013584375 0.000455413315469
59 1 -0.032484375 -0.00125 -0.018309375 0.0
60 1 -0.032484375 -0.00125 -0.017128125 0.0
61 1 -0.032484375 -0.00125 -0.015946875 0.0
62 1 -0.032484375 -0.00125 -0.014765625 0.0
63 1 -0.032484375 -0.00125 -0.013584375 0.0
64 1 -0.032484375 -0.00125 -0.012403125 0.0
65 1 -0.032484375 -0.00125 -0.011221875 0.0
66 1 -0.032484375 -0.00125 -0.010040625 0.0
67 1 -0.032484375 -0.00125 -0.008859375 0.0
68 1 -0.032484375 -0.00125 -0.007678125 0.0
69 1 -0.032484375 -0.00125 -0.006496875 0.0
70 1 -0.032484375 -0.00125 -0.005315625 0.0
71 1 -0.032484375 -0.00125 -0.004134375 0.0
72 1 -0.032484375 -0.00125 -0.002953125 0.0
73 1 -0.032484375 -0.00125 -0.001771875 0.0
74 1 -0.032484375 -0.00125 -0.000590625 0.0
75 1 -0.032484375 -0.00125 0.000590625 0.0
76 1 -0.032484375 -0.00125 0.001771875 0.0
77 1 -0.032484375 -0.00125 0.002953125 0.0
78 1 -0.032484375 -0.00125 0.004134375 0.0
79 1 -0.032484375 -0.00125 0.005315625 7.6989341285e-05
80 1 -0.032484375 -0.00125 0.006496875 0.104914072256
81 1 -0.032484375 -0.00125 0.007678125 0.119202686097
82 1 -0.032484375 -0.00125 0.008859375 0.186171540908
83 1 -0.032484375 -0.00125 0.010040625 0.247255224964
84 1 -0.032484375 -0.00125 0.011221875 0.286812817882
85 1 -0.032484375 -0.00125 0.012403125 0.189667135603
86 1 -0.032484375 -0.00125 0.013584375 0.242020452361
87 1 -0.032484375 -0.00125 0.014765625 0.0373126690977
88 1 -0.032484375 -0.00125 0.015946875 0.00235345837355
89 1 -0.032484375 -0.00125 0.017128125 0.00106278235535
90 1 -0.032484375 -0.00125 0.018309375 1.7269595626e-06
91 1 -0.031303125 -0.00125 -0.019490625 0.0
92 1 -0.031303125 -0.00125 -0.018309375 0.0
93 1 -0.031303125 -0.00125 -0.017128125 0.0
94 1 -0.031303125 -0.00125 -0.015946875 0.0
95 1 -0.031303125 -0.00125 -0.014765625 0.0
96 1 -0.031303125 -0.00125 -0.013584375 0.0
97 1 -0.031303125 -0.00125 -0.012403125 0.0
98 1 -0.031303125 -0.00125 -0.011221875 0.0
99 1 -0.031303125 -0.00125 -0.010040625 0.0
100 1 -0.031303125 -0.00125 -0.008859375 0.0
101 1 -0.031303125 -0.00125 -0.007678125 0.0
102 1 -0.031303125 -0.00125 -0.006496875 0.0
103 1 -0.031303125 -0.00125 -0.005315625 0.0
104 1 -0.031303125 -0.00125 -0.004134375 0.0
105 1 -0.031303125 -0.00125 -0.002953125 0.0
106 1 -0.031303125 -0.00125 -0.001771875 0.0
107 1 -0.031303125 -0.00125 -0.000590625 0.0
108 1 -0.031303125 -0.00125 0.000590625 0.0
109 1 -0.031303125 -0.00125 0.001771875 0.0
110 1 -0.031303125 -0.00125 0.002953125 0.0
111 1 -0.031303125 -0.00125 0.004134375 0.0
112 1 -0.031303125 -0.00125 0.005315625 0.0
113 1 -0.031303125 -0.00125 0.006496875 0.0
114 1 -0.031303125 -0.00125 0.007678125 1.74019667629e-11
115 1 -0.031303125 -0.00125 0.008859375 0.000126657572948
116 1 -0.031303125 -0.00125 0.010040625 0.00474644221021
117 1 -0.031303125 -0.00125 0.011221875 0.0443323240644
118 1 -0.031303125 -0.00125 0.012403125 0.263675002831
119 1 -0.031303125 -0.00125 0.013584375 0.31786017033
120 1 -0.031303125 -0.00125 0.014765625 0.292342717184
121 1 -0.031303125 -0.00125 0.015946875 0.332326556717
122 1 -0.031303125 -0.00125 0.017128125 0.196692230435
123 1 -0.031303125 -0.00125 0.018309375 0.202614915207
124 1 -0.031303125 -0.00125 0.019490625 2.66892347814e-17
125 1 -0.030121875 -0.00125 -0.020671875 0.0
126 1 -0.030121875 -0.00125 -0.019490625 0.0
127 1 -0.030121875 -0.00125 -0.018309375 0.0
128 1 -0.030121875 -0.00125 -0.017128125 0.0
129 1 -0.030121875 -0.00125 -0.015946875 0.0
130 1 -0.030121875 -0.00125 -0.014765625 0.0
131 1 -0.030121875 -0.00125 -0.013584375 0.0
132 1 -0.030121875 -0.00125 -0.012403125 0.0
133 1 -0.030121875 -0.00125 -0.011221875 0.0
134 1 -0.030121875 -0.00125 -0.010040625 0.0
135 1 -0.030121875 -0.00125 -0.008859375 0.0
136 1 -0.030121875 -0.00125 -0.007678125 0.0
137 1 -0.030121875 -0.00125 -0.006496875 0.0
138 1 -0.030121875 -0.00125 -0.005315625 0.0
139 1 -0.030121875 -0.00125 -0.004134375 0.0
140 1 -0.030121875 -0.00125 -0.002953125 0.0
141 1 -0.030121875 -0.00125 -0.001771875 0.0
142 1 -0.030121875 -0.00125 -0.000590625 0.0
143 1 -0.030121875 -0.00125 0.000590625 0.0
144 1 -0.030121875 -0.00125 0.001771875 0.0
145 1 -0.030121875 -0.00125 0.002953125 0.0
146 1 -0.030121875 -0.00125 0.004134375 0.0
147 1 -0.030121875 -0.00125 0.005315625 0.0
148 1 -0.030121875 -0.00125 0.006496875 0.0
149 1 -0.030121875 -0.00125 0.007678125 0.0
150 1 -0.030121875 -0.00125 0.008859375 0.0
151 1 -0.030121875 -0.00125 0.010040625 0.0
152 1 -0.030121875 -0.00125 0.011221875 1.74019667629e-11
153 1 -0.030121875 -0.00125 0.012403125 6.01557630165e-07
154 1 -0.030121875 -0.00125 0.013584375 0.0912338705648
155 1 -0.030121875 -0.00125 0.014765625 0.252716464147
156 1 -0.030121875 -0.00125 0.015946875 0.343471904739
157 1 -0.030121875 -0.00125 0.017128125 0.224469737872
158 1 -0.030121875 -0.00125 0.018309375 0.281290170023
159 1 -0.030121875 -0.00125 0.019490625 0.0608307151453
160 1 -0.030121875 -0.00125 0.020671875 0.00466864259094
161 1 -0.028940625 -0.00125 -0.021853125 0.0
162 1 -0.028940625 -0.00125 -0.020671875 0.0
163 1 -0.028940625 -0.00125 -0.019490625 0.0
164 1 -0.028940625 -0.00125 -0.018309375 0.0
165 1 -0.028940625 -0.00125 -0.017128125 0.0
166 1 -0.028940625 -0.00125 -0.015946875 0.0
167 1 -0.028940625 -0.00125 -0.014765625 0.0
168 1 -0.028940625 -0.00125 -0.013584375 0.0
169 1 -0.028940625 -0.00125 -0.012403125 0.0
170 1 -0.028940625 -0.00125 -0.011221875 0.0
171 1 -0.028940625 -0.00125 -0.010040625 0.0
172 1 -0.028940625 -0.00125 -0.008859375 0.0
173 1 -0.028940625 -0.00125 -0.007678125 0.0
174 1 -0.028940625 -0.00125 -0.006496875 0.0
175 1 -0.028940625 -0.00125 -0.005315625 0.0
176 1 -0.028940625 -0.00125 -0.004134375 1.74019667629e-11
177 1 -0.028940625 -0.00125 -0.002953125 1.74019667629e-11
178 1 -0.028940625 -0.00125 -0.001771875 0.0
179 1 -0.028940625 -0.00125 -0.000590625 0.0
180 1 -0.028940625 -0.00125 0.000590625 0.0
181 1 -0.028940625 -0.00125 0.001771875 0.0
182 1 -0.028940625 -0.00125 0.002953125 0.0
183 1 -0.028940625 -0.00125 0.004134375 0.0
184 1 -0.028940625 -0.00125 0.005315625 0.0
185 1 -0.028940625 -0.00125 0.006496875 2.79378975481e-22
186 1 -0.028940625 -0.00125 0.007678125 0.0
187 1 -0.028940625 -0.00125 0.008859375 0.0
188 1 -0.028940625 -0.00125 0.010040625 0.0
189 1 -0.028940625 -0.00125 0.011221875 0.0
190 1 -0.028940625 -0.00125 0.012403125 1.74019667629e-11
191 1 -0.028940625 -0.00125 0.013584375 0.00932953392491
192 1 -0.028940625 -0.00125 0.014765625 0.14929428164
193 1 -0.028940625 -0.00125 0.015946875 0.224469737872
194 1 -0.028940625 -0.00125 0.017128125 0.14929428164
195 1 -0.028940625 -0.00125 0.018309375 0.263675002831
196 1 -0.028940625 -0.00125 0.019490625 0.180950835502
197 1 -0.028940625 -0.00125 0.020671875 0.057607006066
198 1 -0.028940625 -0.00125 0.021853125 0.129318565008
199 1 -0.027759375 -0.00125 -0.024215625 0.0
200 1 -0.027759375 -0.00125 -0.023034375 0.0
201 1 -0.027759375 -0.00125 -0.021853125 0.0
202 1 -0.027759375 -0.00125 -0.020671875 0.0
203 1 -0.027759375 -0.00125 -0.019490625 0.0
204 1 -0.027759375 -0.00125 -0.018309375 0.0
205 1 -0.027759375 -0.00125 -0.017128125 0.0
206 1 -0.027759375 -0.00125 -0.015946875 0.0
207 1 -0.027759375 -0.00125 -0.014765625 0.0
208 1 -0.027759375 -0.00125 -0.013584375 0.0
209 1 -0.027759375 -0.00125 -0.012403125 0.0
210 1 -0.027759375 -0.00125 -0.011221875 0.0
211 1 -0.027759375 -0.00125 -0.010040625 0.0
212 1 -0.027759375 -0.00125 -0.008859375 0.0
213 1 -0.027759375 -0.00125 -0.007678125 0.0
214 1 -0.027759375 -0.00125 -0.006496875 0.0
215 1 -0.027759375 -0.00125 -0.005315625 1.74019667629e-11
216 1 -0.027759375 -0.00125 -0.004134375 0.00154812961495
217 1 -0.027759375 -0.00125 -0.002953125 0.000891017573599
218 1 -0.027759375 -0.00125 -0.001771875 0.00474645121499
219 1 -0.027759375 -0.00125 -0.000590625 0.000126657572948
220 1 -0.027759375 -0.00125 0.000590625 0.0
221 1 -0.027759375 -0.00125 0.001771875 0.0
222 1 -0.027759375 -0.00125 0.002953125 0.0
223 1 -0.027759375 -0.00125 0.004134375 6.01557630165e-07
224 1 -0.027759375 -0.00125 0.005315625 0.0243767756543
225 1 -0.027759375 -0.00125 0.006496875 3.07879020573e-05
226 1 -0.027759375 -0.00125 0.007678125 0.0
227 1 -0.027759375 -0.00125 0.008859375 0.0
228 1 -0.027759375 -0.00125 0.010040625 0.0
229 1 -0.027759375 -0.00125 0.011221875 0.0
230 1 -0.027759375 -0.00125 0.012403125 0.0
231 1 -0.027759375 -0.00125 0.013584375 1.74014005978e-11
232 1 -0.027759375 -0.00125 0.014765625 0.0243767756543
233 1 -0.027759375 -0.00125 0.015946875 0.14929428164
234 1 -0.027759375 -0.00125 0.017128125 0.21372123369
235 1 -0.027759375 -0.00125 0.018309375 0.252716464147
236 1 -0.027759375 -0.00125 0.019490625 0.326759635518
237 1 -0.027759375 -0.00125 0.020671875 0.159358746116
238 1 -0.027759375 -0.00125 0.021853125 0.039415900736
239 1 -0.027759375 -0.00125 0.023034375 0.00106278235535
240 1 -0.027759375 -0.00125 0.024215625 1.7269595626e-06
241 1 -0.026578125 -0.00125 -0.026578125 0.0
242 1 -0.026578125 -0.00125 -0.025396875 0.0
243 1 -0.026578125 -0.00125 -0.024215625 0.0
244 1 -0.026578125 -0.00125 -0.023034375 0.0
245 1 -0.026578125 -0.00125 -0.021853125 0.0
246 1 -0.026578125 -0.00125 -0.020671875 0.0
247 1 -0.026578125 -0.00125 -0.019490625 0.0
248 1 -0.026578125 -0.00125 -0.018309375 0.0
249 1 -0.026578125 -0.00125 -0.017128125 0.0
250 1 -0.026578125 -0.00125 -0.015946875 0.0
251 1 -0.026578125 -0.00125 -0.014765625 0.0
252 1 -0.026578125 -0.00125 -0.013584375 0.0
253 1 -0.026578125 -0.00125 -0.012403125 0.0
254 1 -0.026578125 -0.00125 -0.011221875 0.0
255 1 -0.026578125 -0.00125 -0.010040625 0.0
256 1 -0.026578125 -0.00125 -0.008859375 0.0
257 1 -0.026578125 -0.00125 -0.007678125 0.0
258 1 -0.026578125 -0.00125 -0.006496875 7.49709589486e-44
259 1 -0.026578125 -0.00125 -0.005315625 1.5838087899e-05
260 1 -0.026578125 -0.00125 -0.004134375 0.00474647822937
261 1 -0.026578125 -0.00125 -0.002953125 0.0802910104399
262 1 -0.026578125 -0.00125 -0.001771875 0.21908624719
263 1 -0.026578125 -0.00125 -0.000590625 0.389735895408
264 1 -0.026578125 -0.00125 0.000590625 0.144772018144
265 1 -0.026578125 -0.00125 0.001771875 5.56342681978e-05
266 1 -0.026578125 -0.00125 0.002953125 0.0229929886664
267 1 -0.026578125 -0.00125 0.004134375 0.154307310461
268 1 -0.026578125 -0.00125 0.005315625 0.335669010033
269 1 -0.026578125 -0.00125 0.006496875 0.349605896923
270 1 -0.026578125 -0.00125 0.007678125 0.346817124959
271 1 -0.026578125 -0.00125 0.008859375 0.191419372554
272 1 -0.026578125 -0.00125 0.010040625 0.131597938701
273 1 -0.026578125 -0.00125 0.011221875 0.0282820477673
274 1 -0.026578125 -0.00125 0.012403125 1.28754471296e-08
275 1 -0.026578125 -0.00125 0.013584375 7.49709589486e-44
276 1 -0.026578125 -0.00125 0.014765625 2.79378975481e-22
277 1 -0.026578125 -0.00125 0.015946875 1.77728463318e-06
278 1 -0.026578125 -0.00125 0.017128125 7.69891724187e-05
279 1 -0.026578125 -0.00125 0.018309375 0.00228020850123
280 1 -0.026578125 -0.00125 0.019490625 0.0691111217567
281 1 -0.026578125 -0.00125 0.020671875 0.224469737872
282 1 -0.026578125 -0.00125 0.021853125 0.266970044988
283 1 -0.026578125 -0.00125 0.023034375 0.361325055821
284 1 -0.026578125 -0.00125 0.024215625 0.0395398696836
285 1 -0.026578125 -0.00125 0.025396875 0.000509930730429
286 1 -0.026578125 -0.00125 0.026578125 0.0
287 1 -0.025396875 -0.00125 -0.026578125 0.0
288 1 -0.025396875 -0.00125 -0.025396875 0.0
289 1 -0.025396875 -0.00125 -0.024215625 0.0
290 1 -0.025396875 -0.00125 -0.023034375 0.0
291 1 -0.025396875 -0.00125 -0.021853125 0.0
292 1 -0.025396875 -0.00125 -0.020671875 0.0
293 1 -0.025396875 -0.00125 -0.019490625 0.0
294 1 -0.025396875 -0.00125 -0.018309375 0.0
295 1 -0.025396875 -0.00125 -0.017128125 0.0
296 1 -0.025396875 -0.00125 -0.015946875 0.0
297 1 -0.025396875 -0.00125 -0.014765625 0.0
298 1 -0.025396875 -0.00125 -0.013584375 0.0
299 1 -0.025396875 -0.00125 -0.012403125 0.0
300 1 -0.025396875 -0.00125 -0.011221875 0.0
301 1 -0.025396875 -0.00125 -0.010040625 0.0
302 1 -0.025396875 -0.00125 -0.008859375 0.0
303 1 -0.025396875 -0.00125 -0.007678125 0.0
304 1 -0.025396875 -0.00125 -0.006496875 2.79378975481e-22
305 1 -0.025396875 -0.00125 -0.005315625 0.0
306 1 -0.025396875 -0.00125 -0.004134375 0.0
307 1 -0.025396875 -0.00125 -0.002953125 0.0
308 1 -0.025396875 -0.00125 -0.001771875 1.74019667629e-11
309 1 -0.025396875 -0.00125 -0.000590625 0.20987136098
310 1 -0.025396875 -0.00125 0.000590625 0.149794119531
311 1 -0.025396875 -0.00125 0.001771875 1.74019667629e-11
312 1 -0.025396875 -0.00125 0.002953125 6.01557630165e-07
313 1 -0.025396875 -0.00125 0.004134375 0.114532075754
314 1 -0.025396875 -0.00125 0.005315625 0.114532114604
315 1 -0.025396875 -0.00125 0.006496875 0.0335973018971
316 1 -0.025396875 -0.00125 0.007678125 0.0698876476892
317 1 -0.025396875 -0.00125 0.008859375 0.401555093596
318 1 -0.025396875 -0.00125 0.010040625 0.68991847806
319 1 -0.025396875 -0.00125 0.011221875 0.511187741896
320 1 -0.025396875 -0.00125 0.012403125 0.252716464147
321 1 -0.025396875 -0.00125 0.013584375 0.0335974064356
322 1 -0.025396875 -0.00125 0.014765625 0.000126658700522
323 1 -0.025396875 -0.00125 0.015946875 0.0
324 1 -0.025396875 -0.00125 0.017128125 0.0
325 1 -0.025396875 -0.00125 0.018309375 0.0
326 1 -0.025396875 -0.00125 0.019490625 0.0
327 1 -0.025396875 -0.00125 0.020671875 1.22156214432e-15
328 1 -0.025396875 -0.00125 0.021853125 0.0293069007767
329 1 -0.025396875 -0.00125 0.023034375 0.14929428164
330 1 -0.025396875 -0.00125 0.024215625 0.3791971081
331 1 -0.025396875 -0.00125 0.025396875 0.169569358233
332 1 -0.025396875 -0.00125 0.026578125 4.73457622274e-06
333 1 -0.024215625 -0.00125 -0.027759375 0.0
334 1 -0.024215625 -0.00125 -0.026578125 0.0
335 1 -0.024215625 -0.00125 -0.025396875 0.0
336 1 -0.024215625 -0.00125 -0.024215625 0.0
337 1 -0.024215625 -0.00125 -0.023034375 0.0
338 1 -0.024215625 -0.00125 -0.021853125 0.0
339 1 -0.024215625 -0.00125 -0.020671875 0.0
340 1 -0.024215625 -0.00125 -0.019490625 0.0
341 1 -0.024215625 -0.00125 -0.018309375 0.0
342 1 -0.024215625 -0.00125 -0.017128125 0.0
343 1 -0.024215625 -0.00125 -0.015946875 0.0
344 1 -0.024215625 -0.00125 -0.014765625 0.0
345 1 -0.024215625 -0.00125 -0.013584375 0.0
346 1 -0.024215625 -0.00125 -0.012403125 0.0
347 1 -0.024215625 -0.00125 -0.011221875 0.0
348 1 -0.024215625 -0.00125 -0.010040625 0.0
349 1 -0.024215625 -0.00125 -0.008859375 0.0
350 1 -0.024215625 -0.00125 -0.007678125 1.74019667629e-11
351 1 -0.024215625 -0.00125 -0.006496875 0.0
352 1 -0.024215625 -0.00125 -0.005315625 0.0
353 1 -0.024215625 -0.00125 -0.004134375 0.0
354 1 -0.024215625 -0.00125 -0.002953125 0.0
355 1 -0.024215625 -0.00125 -0.001771875 0.0
356 1 -0.024215625 -0.00125 -0.000590625 0.111756959983
357 1 -0.024215625 -0.00125 0.000590625 0.14929428164
358 1 -0.024215625 -0.00125 0.001771875 0.000126658700522
359 1 -0.024215625 -0.00125 0.002953125 4.42606186288e-05
360 1 -0.024215625 -0.00125 0.004134375 0.0622852805866
361 1 -0.024215625 -0.00125 0.005315625 0.0827704306511
362 1 -0.024215625 -0.00125 0.006496875 0.0660411348198
363 1 -0.024215625 -0.00125 0.007678125 0.00668184101894
364 1 -0.024215625 -0.00125 0.008859375 0.00474645121499
365 1 -0.024215625 -0.00125 0.010040625 0.412738808647
366 1 -0.024215625 -0.00125 0.011221875 0.678804021823
367 1 -0.024215625 -0.00125 0.012403125 0.569364654976
368 1 -0.024215625 -0.00125 0.013584375 0.410501961931
369 1 -0.024215625 -0.00125 0.014765625 0.114532075754
370 1 -0.024215625 -0.00125 0.015946875 0.0138696939255
371 1 -0.024215625 -0.00125 0.017128125 1.22156214432e-15
372 1 -0.024215625 -0.00125 0.018309375 0.0
373 1 -0.024215625 -0.00125 0.019490625 0.0
374 1 -0.024215625 -0.00125 0.020671875 0.0
375 1 -0.024215625 -0.00125 0.021853125 0.0
376 1 -0.024215625 -0.00125 0.023034375 6.01557630165e-07
377 1 -0.024215625 -0.00125 0.024215625 0.0698876476892
378 1 -0.024215625 -0.00125 0.025396875 0.343471904739
379 1 -0.024215625 -0.00125 0.026578125 0.0151828172783
380 1 -0.024215625 -0.00125 0.027759375 0.0
381 1 -0.023034375 -0.00125 -0.027759375 0.0
382 1 -0.023034375 -0.00125 -0.026578125 0.0
383 1 -0.023034375 -0.00125 -0.025396875 0.0
384 1 -0.023034375 -0.00125 -0.024215625 0.0
385 1 -0.023034375 -0.00125 -0.023034375 0.0
386 1 -0.023034375 -0.00125 -0.021853125 0.0
387 1 -0.023034375 -0.00125 -0.020671875 0.0
388 1 -0.023034375 -0.00125 -0.019490625 0.0
389 1 -0.023034375 -0.00125 -0.018309375 0.0
390 1 -0.023034375 -0.00125 -0.017128125 0.0
391 1 -0.023034375 -0.00125 -0.015946875 0.0
392 1 -0.023034375 -0.00125 -0.014765625 0.0
393 1 -0.023034375 -0.00125 -0.013584375 0.0
394 1 -0.023034375 -0.00125 -0.012403125 0.0
395 1 -0.023034375 -0.00125 -0.011221875 0.0
396 1 -0.023034375 -0.00125 -0.010040625 0.0
397 1 -0.023034375 -0.00125 -0.008859375 0.0
398 1 -0.023034375 -0.00125 -0.007678125 6.01557630165e-07
399 1 -0.023034375 -0.00125 -0.006496875 1.5838087899e-05
400 1 -0.023034375 -0.00125 -0.005315625 0.0
401 1 -0.023034375 -0.00125 -0.004134375 0.0
402 1 -0.023034375 -0.00125 -0.002953125 0.0
403 1 -0.023034375 -0.00125 -0.001771875 0.0
404 1 -0.023034375 -0.00125 -0.000590625 0.036431516761
405 1 -0.023034375 -0.00125 0.000590625 0.350163267536
406 1 -0.023034375 -0.00125 0.001771875 0.0138696939255
407 1 -0.023034375 -0.00125 0.002953125 0.0381872278205
408 1 -0.023034375 -0.00125 0.004134375 0.0550579642476
409 1 -0.023034375 -0.00125 0.005315625 0.0243767756543
410 1 -0.023034375 -0.00125 0.006496875 0.00668183425715
411 1 -0.023034375 -0.00125 0.007678125 0.0
412 1 -0.023034375 -0.00125 0.008859375 0.000126658700522
413 1 -0.023034375 -0.00125 0.010040625 0.0698876476892
414 1 -0.023034375 -0.00125 0.011221875 0.321195978177
415 1 -0.023034375 -0.00125 0.012403125 0.488811743157
416 1 -0.023034375 -0.00125 0.013584375 0.425042808253
417 1 -0.023034375 -0.00125 0.014765625 0.522376508072
418 1 -0.023034375 -0.00125 0.015946875 0.298987939022
419 1 -0.023034375 -0.00125 0.017128125 0.0107214510125
420 1 -0.023034375 -0.00125 0.018309375 1.22156214432e-15
421 1 -0.023034375 -0.00125 0.019490625 0.0
422 1 -0.023034375 -0.00125 0.020671875 0.0
423 1 -0.023034375 -0.00125 0.021853125 0.0
424 1 -0.023034375 -0.00125 0.023034375 0.0
425 1 -0.023034375 -0.00125 0.024215625 0.000126658700522
426 1 -0.023034375 -0.00125 0.025396875 0.0698876476892
427 1 -0.023034375 -0.00125 0.026578125 0.332327115976
428 1 -0.023034375 -0.00125 0.027759375 0.320687946562
429 1 -0.021853125 -0.00125 -0.028940625 0.0
430 1 -0.021853125 -0.00125 -0.027759375 0.0
431 1 -0.021853125 -0.00125 -0.026578125 0.0
432 1 -0.021853125 -0.00125 -0.025396875 0.0
433 1 -0.021853125 -0.00125 -0.024215625 0.0
434 1 -0.021853125 -0.00125 -0.023034375 0.0
435 1 -0.021853125 -0.00125 -0.021853125 0.0
436 1 -0.021853125 -0.00125 -0.020671875 0.0
437 1 -0.021853125 -0.00125 -0.019490625 0.0
438 1 -0.021853125 -0.00125 -0.018309375 0.0
439 1 -0.021853125 -0.00125 -0.017128125 0.0
440 1 -0.021853125 -0.00125 -0.015946875 0.0
441 1 -0.021853125 -0.00125 -0.014765625 0.0
442 1 -0.021853125 -0.00125 -0.013584375 0.0
443 1 -0.021853125 -0.00125 -0.012403125 0.0
444 1 -0.021853125 -0.00125 -0.011221875 0.0
445 1 -0.021853125 -0.00125 -0.010040625 0.0
446 1 -0.021853125 -0.00125 -0.008859375 6.01557630165e-07
447 1 -0.021853125 -0.00125 -0.007678125 0.000126658700522
448 1 -0.021853125 -0.00125 -0.006496875 7.46384686318e-06
449 1 -0.021853125 -0.00125 -0.005315625 0.0
450 1 -0.021853125 -0.00125 -0.004134375 0.0
451 1 -0.021853125 -0.00125 -0.002953125 0.0
452 1 -0.021853125 -0.00125 -0.001771875 0.0
453 1 -0.021853125 -0.00125 -0.000590625 0.0085515641959
454 1 -0.021853125 -0.00125 0.000590625 0.59844434493
455 1 -0.021853125 -0.00125 0.001771875 0.0912339065983
456 1 -0.021853125 -0.00125 0.002953125 0.01386971523
457 1 -0.021853125 -0.00125 0.004134375 0.00474644221021
458 1 -0.021853125 -0.00125 0.005315625 0.000126657572948
459 1 -0.021853125 -0.00125 0.006496875 2.79378975481e-22
460 1 -0.021853125 -0.00125 0.007678125 0.0
461 1 -0.021853125 -0.00125 0.008859375 4.52220221462e-06
462 1 -0.021853125 -0.00125 0.010040625 0.0243767756543
463 1 -0.021853125 -0.00125 0.011221875 0.057902305032
464 1 -0.021853125 -0.00125 0.012403125 0.0827704828178
465 1 -0.021853125 -0.00125 0.013584375 0.326759635518
466 1 -0.021853125 -0.00125 0.014765625 0.372492797347
467 1 -0.021853125 -0.00125 0.015946875 0.241806863156
468 1 -0.021853125 -0.00125 0.017128125 0.310082079515
469 1 -0.021853125 -0.00125 0.018309375 0.105365879132
470 1 -0.021853125 -0.00125 0.019490625 0.00228022595935
471 1 -0.021853125 -0.00125 0.020671875 1.22156214432e-15
472 1 -0.021853125 -0.00125 0.021853125 1.22156214432e-15
473 1 -0.021853125 -0.00125 0.023034375 0.00474645121499
474 1 -0.021853125 -0.00125 0.024215625 0.0550579936718
475 1 -0.021853125 -0.00125 0.025396875 0.0698876476892
476 1 -0.021853125 -0.00125 0.026578125 0.172658474079
477 1 -0.021853125 -0.00125 0.027759375 0.340979854642
478 1 -0.021853125 -0.00125 0.028940625 0.0904523633156
479 1 -0.020671875 -0.00125 -0.030121875 0.0
480 1 -0.020671875 -0.00125 -0.028940625 0.0
481 1 -0.020671875 -0.00125 -0.027759375 0.0
482 1 -0.020671875 -0.00125 -0.026578125 0.0
483 1 -0.020671875 -0.00125 -0.025396875 0.0
484 1 -0.020671875 -0.00125 -0.024215625 0.0
485 1 -0.020671875 -0.00125 -0.023034375 0.0
486 1 -0.020671875 -0.00125 -0.021853125 0.0
487 1 -0.020671875 -0.00125 -0.020671875 0.0
488 1 -0.020671875 -0.00125 -0.019490625 0.0
489 1 -0.020671875 -0.00125 -0.018309375 0.0
490 1 -0.020671875 -0.00125 -0.017128125 0.0
491 1 -0.020671875 -0.00125 -0.015946875 0.0
492 1 -0.020671875 -0.00125 -0.014765625 0.0
493 1 -0.020671875 -0.00125 -0.013584375 0.0
494 1 -0.020671875 -0.00125 -0.012403125 0.0
495 1 -0.020671875 -0.00125 -0.011221875 0.00474645121499
496 1 -0.020671875 -0.00125 -0.010040625 0.0243767952624
497 1 -0.020671875 -0.00125 -0.008859375 0.00154813293271
498 1 -0.020671875 -0.00125 -0.007678125 0.00474645121499
499 1 -0.020671875 -0.00125 -0.006496875 0.00118682874801
500 1 -0.020671875 -0.00125 -0.005315625 0.000126658700522
501 1 -0.020671875 -0.00125 -0.004134375 1.74019667629e-11
502 1 -0.020671875 -0.00125 -0.002953125 1.74019667629e-11
503 1 -0.020671875 -0.00125 -0.001771875 1.74019667629e-11
504 1 -0.020671875 -0.00125 -0.000590625 1.28754471296e-08
505 1 -0.020671875 -0.00125 0.000590625 0.5
506 1 -0.020671875 -0.00125 0.001771875 0.224469737872
507 1 -0.020671875 -0.00125 0.002953125 4.52220221462e-06
508 1 -0.020671875 -0.00125 0.004134375 0.0
509 1 -0.020671875 -0.00125 0.005315625 0.0
510 1 -0.020671875 -0.00125 0.006496875 7.02299466978e-08
511 1 -0.020671875 -0.00125 0.007678125 0.0
512 1 -0.020671875 -0.00125 0.008859375 1.74019667629e-11
513 1 -0.020671875 -0.00125 0.010040625 0.0175125891118
514 1 -0.020671875 -0.00125 0.011221875 0.143331930085
515 1 -0.020671875 -0.00125 0.012403125 0.000126658700522
516 1 -0.020671875 -0.00125 0.013584375 0.0509112007263
517 1 -0.020671875 -0.00125 0.014765625 0.430635859907
518 1 -0.020671875 -0.00125 0.015946875 0.350163781038
519 1 -0.020671875 -0.00125 0.017128125 0.0443322841124
520 1 -0.020671875 -0.00125 0.018309375 0.0827704828178
521 1 -0.020671875 -0.00125 0.019490625 0.134506394838
522 1 -0.020671875 -0.00125 0.020671875 0.0199375166154
523 1 -0.020671875 -0.00125 0.021853125 0.00668182974929
524 1 -0.020671875 -0.00125 0.023034375 0.0827704828178
525 1 -0.020671875 -0.00125 0.024215625 0.149294323427
526 1 -0.020671875 -0.00125 0.025396875 0.252716464147
527 1 -0.020671875 -0.00125 0.026578125 0.0220952593326
528 1 -0.020671875 -0.00125 0.027759375 0.0138696939255
529 1 -0.020671875 -0.00125 0.028940625 8.26663545308e-15
530 1 -0.020671875 -0.00125 0.030121875 0.00466864259094
531 1 -0.019490625 -0.00125 -0.031303125 0.0
532 1 -0.019490625 -0.00125 -0.030121875 0.0
533 1 -0.019490625 -0.00125 -0.028940625 0.0
534 1 -0.019490625 -0.00125 -0.027759375 0.0
535 1 -0.019490625 -0.00125 -0.026578125 0.0
536 1 -0.019490625 -0.00125 -0.025396875 0.0
537 1 -0.019490625 -0.00125 -0.024215625 0.0
538 1 -0.019490625 -0.00125 -0.023034375 0.0
539 1 -0.019490625 -0.00125 -0.021853125 0.0
540 1 -0.019490625 -0.00125 -0.020671875 0.0
541 1 -0.019490625 -0.00125 -0.019490625 0.0
542 1 -0.019490625 -0.00125 -0.018309375 0.0
543 1 -0.019490625 -0.00125 -0.017128125 0.0
544 1 -0.019490625 -0.00125 -0.015946875 0.0
545 1 -0.019490625 -0.00125 -0.014765625 0.0
546 1 -0.019490625 -0.00125 -0.013584375 0.0
547 1 -0.019490625 -0.00125 -0.012403125 3.07879020573e-05
548 1 -0.019490625 -0.00125 -0.011221875 0.0267810506
549 1 -0.019490625 -0.00125 -0.010040625 0.0802910104399
550 1 -0.019490625 -0.00125 -0.008859375 0.0308802387238
551 1 -0.019490625 -0.00125 -0.007678125 0.00565998798415
552 1 -0.019490625 -0.00125 -0.006496875 0.011014204023
553 1 -0.019490625 -0.00125 -0.005315625 0.00565998798415
554 1 -0.019490625 -0.00125 -0.004134375 0.00284458672872
555 1 -0.019490625 -0.00125 -0.002953125 0.00565998798415
556 1 -0.019490625 -0.00125 -0.001771875 0.000126658700522
557 1 -0.019490625 -0.00125 -0.000590625 1.28754471296e-08
558 1 -0.019490625 -0.00125 0.000590625 0.205179062488
559 1 -0.019490625 -0.00125 0.001771875 0.21908624719
560 1 -0.019490625 -0.00125 0.002953125 0.0
561 1 -0.019490625 -0.00125 0.004134375 0.0
562 1 -0.019490625 -0.00125 0.005315625 2.79378975481e-22
563 1 -0.019490625 -0.00125 0.006496875 4.19822140559e-07
564 1 -0.019490625 -0.00125 0.007678125 1.74019667629e-11
565 1 -0.019490625 -0.00125 0.008859375 0.0
566 1 -0.019490625 -0.00125 0.010040625 7.02309649834e-08
567 1 -0.019490625 -0.00125 0.011221875 0.00349873230876
568 1 -0.019490625 -0.00125 0.012403125 3.07878012444e-05
569 1 -0.019490625 -0.00125 0.013584375 0.00125361435262
570 1 -0.019490625 -0.00125 0.014765625 0.0509111155077
571 1 -0.019490625 -0.00125 0.015946875 0.341241493571
572 1 -0.019490625 -0.00125 0.017128125 0.318971670203
573 1 -0.019490625 -0.00125 0.018309375 0.227708257719
574 1 -0.019490625 -0.00125 0.019490625 0.0641516588816
575 1 -0.019490625 -0.00125 0.020671875 0.0660411189129
576 1 -0.019490625 -0.00125 0.021853125 0.00228020850123
577 1 -0.019490625 -0.00125 0.023034375 0.000126657572948
578 1 -0.019490625 -0.00125 0.024215625 0.00424847766901
579 1 -0.019490625 -0.00125 0.025396875 0.029306976526
580 1 -0.019490625 -0.00125 0.026578125 0.259834211829
581 1 -0.019490625 -0.00125 0.027759375 0.208376652185
582 1 -0.019490625 -0.00125 0.028940625 0.0352839698423
583 1 -0.019490625 -0.00125 0.030121875 0.00312939001516
584 1 -0.019490625 -0.00125 0.031303125 2.56728544141e-12
585 1 -0.018309375 -0.00125 -0.032484375 0.0
586 1 -0.018309375 -0.00125 -0.031303125 0.0
587 1 -0.018309375 -0.00125 -0.030121875 0.0
588 1 -0.018309375 -0.00125 -0.028940625 0.0
589 1 -0.018309375 -0.00125 -0.027759375 0.0
590 1 -0.018309375 -0.00125 -0.026578125 0.0
591 1 -0.018309375 -0.00125 -0.025396875 0.0
592 1 -0.018309375 -0.00125 -0.024215625 0.0
593 1 -0.018309375 -0.00125 -0.023034375 0.0
594 1 -0.018309375 -0.00125 -0.021853125 0.0
595 1 -0.018309375 -0.00125 -0.020671875 0.0
596 1 -0.018309375 -0.00125 -0.019490625 0.0
597 1 -0.018309375 -0.00125 -0.018309375 0.0
598 1 -0.018309375 -0.00125 -0.017128125 0.0