ITEM: TIMESTEP
0
ITEM: NUMBER OF ATOMS
3080
ITEM: BOX BOUNDS ss ss ss
-3.7007399999999996e-02 3.7007399999999996e-02
-2.0002499999999999e-03 2.5000000000000004e-07
-3.7007399999999996e-02 3.7007399999999996e-02
ITEM: ATOMS id type x y z c_1
0 1 -0.037209375 -0.00125 -0.000590625 0.0
1 1 -0.036028125 -0.00125 -0.007678125 0.0
2 1 -0.036028125 -0.00125 -0.006496875 0.0
3 1 -0.036028125 -0.00125 -0.005315625 0.0
4 1 -0.036028125 -0.00125 -0.004134375 0.0
5 1 -0.036028125 -0.00125 -0.002953125 0.0
6 1 -0.036028125 -0.00125 -0.001771875 0.0
7 1 -0.036028125 -0.00125 -0.000590625 0.0
8 1 -0.036028125 -0.00125 0.000590625 0.0
9 1 -0.036028125 -0.00125 0.001771875 0.0
10 1 -0.036028125 -0.00125 0.002953125 0.0
11 1 -0.036028125 -0.00125 0.004134375 0.0
12 1 -0.036028125 -0.00125 0.005315625 0.0
13 1 -0.036028125 -0.00125 0.006496875 0.0
14 1 -0.036028125 -0.00125 0.007678125 0.00920066229086
15 1 -0.034846875 -0.00125 -0.011221875 0.0
16 1 -0.034846875 -0.00125 -0.010040625 0.0
17 1 -0.034846875 -0.00125 -0.008859375 0.0
18 1 -0.034846875 -0.00125 -0.007678125 0.0
19 1 -0.034846875 -0.00125 -0.006496875 0.0
20 1 -0.034846875 -0.00125 -0.005315625 0.0
21 1 -0.034846875 -0.00125 -0.004134375 0.0
22 1 -0.034846875 -0.00125 -0.002953125 0.0
23 1 -0.034846875 -0.00125 -0.001771875 0.0
24 1 -0.034846875 -0.00125 -0.000590625 0.0
25 1 -0.034846875 -0.00125 0.000590625 0.0
26 1 -0.034846875 -0.00125 0.001771875 0.0
27 1 -0.034846875 -0.00125 0.002953125 0.0
28 1 -0.034846875 -0.00125 0.004134375 0.0
29 1 -0.034846875 -0.00125 0.005315625 0.0
30 1 -0.034846875 -0.00125 0.006496875 0.0
31 1 -0.034846875 -0.00125 0.007678125 0.000245540111831
32 1 -0.034846875 -0.00125 0.008859375 0.00106278235535
33 1 -0.034846875 -0.00125 0.010040625 0.0
34 1 -0.034846875 -0.00125 0.011221875 0.00920066229086
35 1 -0.033665625 -0.00125 -0.013584375 0.0
36 1 -0.033665625 -0.00125 -0.012403125 0.0
37 1 -0.033665625 -0.00125 -0.011221875 0.0
38 1 -0.033665625 -0.00125 -0.010040625 0.0
39 1 -0.033665625 -0.00125 -0.008859375 0.0
40 1 -0.033665625 -0.00125 -0.007678125 0.0
41 1 -0.033665625 -0.00125 -0.006496875 0.0
42 1 -0.033665625 -0.00125 -0.005315625 0.0
43 1 -0.033665625 -0.00125 -0.004134375 0.0
44 1 -0.033665625 -0.00125 -0.002953125 0.0
45 1 -0.033665625 -0.00125 -0.001771875 0.0
46 1 -0.033665625 -0.00125 -0.000590625 0.0
47 1 -0.033665625 -0.00125 0.000590625 0.0
48 1 -0.033665625 -0.00125 0.001771875 0.0
49 1 -0.033665625 -0.00125 0.002953125 0.0
50 1 -0.033665625 -0.00125 0.004134375 0.0
51 1 -0.033665625 -0.00125 0.005315625 0.0
52 1 -0.033665625 -0.00125 0.006496875 0.0
53 1 -0.033665625 -0.00125 0.007678125 0.000126658700522
54 1 -0.033665625 -0.00125 0.008859375 0.000126658700522
55 1 -0.033665625 -0.00125 0.010040625 0.0
56 1 -0.033665625 -0.00125 0.011221875 0.112788508618
57 1 -0.033665625 -0.00125 0.012403125 0.320687946562
58 1 -0.033665625 -0.00125 0.013584375 1.60752748465e-07
59 1 -0.032484375 -0.00125 -0.018309375 0.0
60 1 -0.032484375 -0.00125 -0.017128125 0.0
61 1 -0.032484375 -0.00125 -0.015946875 0.0
62 1 -0.032484375 -0.00125 -0.014765625 0.0
63 1 -0.032484375 -0.00125 -0.013584375 0.0
64 1 -0.032484375 -0.00125 -0.012403125 0.0
65 1 -0.032484375 -0.00125 -0.011221875 0.0
66 1 -0.032484375 -0.00125 -0.010040625 0.0
67 1 -0.032484375 -0.00125 -0.008859375 0.0
68 1 -0.032484375 -0.00125 -0.007678125 1.74014005978e-11
69 1 -0.032484375 -0.00125 -0.006496875 1.48540373166e-16
70 1 -0.032484375 -0.00125 -0.005315625 0.0
71 1 -0.032484375 -0.00125 -0.004134375 0.0
72 1 -0.032484375 -0.00125 -0.002953125 0.0
73 1 -0.032484375 -0.00125 -0.001771875 0.0
74 1 -0.032484375 -0.00125 -0.000590625 0.0
75 1 -0.032484375 -0.00125 0.000590625 0.0
76 1 -0.032484375 -0.00125 0.001771875 0.0
77 1 -0.032484375 -0.00125 0.002953125 0.0
78 1 -0.032484375 -0.00125 0.004134375 0.0
79 1 -0.032484375 -0.00125 0.005315625 0.0
80 1 -0.032484375 -0.00125 0.006496875 0.0
81 1 -0.032484375 -0.00125 0.007678125 0.000126658700522
82 1 -0.032484375 -0.00125 0.008859375 0.000535662176186
83 1 -0.032484375 -0.00125 0.010040625 0.00228022268595
84 1 -0.032484375 -0.00125 0.011221875 0.286812771634
85 1 -0.032484375 -0.00125 0.012403125 0.0802910104399
86 1 -0.032484375 -0.00125 0.013584375 1.28754471296e-08
87 1 -0.032484375 -0.00125 0.014765625 0.00128900728649
88 1 -0.032484375 -0.00125 0.015946875 4.73457622274e-06
89 1 -0.032484375 -0.00125 0.017128125 0.00106278235535
90 1 -0.032484375 -0.00125 0.018309375 0.00920066229086
91 1 -0.031303125 -0.00125 -0.019490625 0.0
92 1 -0.031303125 -0.00125 -0.018309375 0.0
93 1 -0.031303125 -0.00125 -0.017128125 0.0
94 1 -0.031303125 -0.00125 -0.015946875 0.0
95 1 -0.031303125 -0.00125 -0.014765625 0.0
96 1 -0.031303125 -0.00125 -0.013584375 0.0
97 1 -0.031303125 -0.00125 -0.012403125 0.0
98 1 -0.031303125 -0.00125 -0.011221875 0.0
99 1 -0.031303125 -0.00125 -0.010040625 0.0
100 1 -0.031303125 -0.00125 -0.008859375 1.74019667629e-11
101 1 -0.031303125 -0.00125 -0.007678125 0.0381872649833
102 1 -0.031303125 -0.00125 -0.006496875 7.69891724187e-05
103 1 -0.031303125 -0.00125 -0.005315625 1.74019667629e-11
104 1 -0.031303125 -0.00125 -0.004134375 0.0
105 1 -0.031303125 -0.00125 -0.002953125 0.0
106 1 -0.031303125 -0.00125 -0.001771875 0.0
107 1 -0.031303125 -0.00125 -0.000590625 0.0
108 1 -0.031303125 -0.00125 0.000590625 0.0
109 1 -0.031303125 -0.00125 0.001771875 0.0
110 1 -0.031303125 -0.00125 0.002953125 0.0
111 1 -0.031303125 -0.00125 0.004134375 0.0
112 1 -0.031303125 -0.00125 0.005315625 0.0
113 1 -0.031303125 -0.00125 0.006496875 0.0
114 1 -0.031303125 -0.00125 0.007678125 0.0
115 1 -0.031303125 -0.00125 0.008859375 0.01386971523
116 1 -0.031303125 -0.00125 0.010040625 0.0243767952624
117 1 -0.031303125 -0.00125 0.011221875 0.0698876476892
118 1 -0.031303125 -0.00125 0.012403125 0.00154813293271
119 1 -0.031303125 -0.00125 0.013584375 1.77729209249e-06
120 1 -0.031303125 -0.00125 0.014765625 0.00154813293271
121 1 -0.031303125 -0.00125 0.015946875 0.000126658700522
122 1 -0.031303125 -0.00125 0.017128125 0.0138696939255
123 1 -0.031303125 -0.00125 0.018309375 0.000245540111831
124 1 -0.031303125 -0.00125 0.019490625 0.00106277982739
125 1 -0.030121875 -0.00125 -0.020671875 0.0
126 1 -0.030121875 -0.00125 -0.019490625 0.0
127 1 -0.030121875 -0.00125 -0.018309375 0.0
128 1 -0.030121875 -0.00125 -0.017128125 0.0
129 1 -0.030121875 -0.00125 -0.015946875 0.0
130 1 -0.030121875 -0.00125 -0.014765625 0.0
131 1 -0.030121875 -0.00125 -0.013584375 0.0
132 1 -0.030121875 -0.00125 -0.012403125 0.0
133 1 -0.030121875 -0.00125 -0.011221875 0.0
134 1 -0.030121875 -0.00125 -0.010040625 0.0
135 1 -0.030121875 -0.00125 -0.008859375 6.01557630165e-07
136 1 -0.030121875 -0.00125 -0.007678125 0.169569358233
137 1 -0.030121875 -0.00125 -0.006496875 0.00393676055555
138 1 -0.030121875 -0.00125 -0.005315625 0.0138696939255
139 1 -0.030121875 -0.00125 -0.004134375 0.00668182974929
140 1 -0.030121875 -0.00125 -0.002953125 0.0
141 1 -0.030121875 -0.00125 -0.001771875 0.0
142 1 -0.030121875 -0.00125 -0.000590625 0.0
143 1 -0.030121875 -0.00125 0.000590625 0.0
144 1 -0.030121875 -0.00125 0.001771875 0.0
145 1 -0.030121875 -0.00125 0.002953125 0.0
146 1 -0.030121875 -0.00125 0.004134375 0.0
147 1 -0.030121875 -0.00125 0.005315625 0.0
148 1 -0.030121875 -0.00125 0.006496875 0.0
149 1 -0.030121875 -0.00125 0.007678125 0.0
150 1 -0.030121875 -0.00125 0.008859375 0.0
151 1 -0.030121875 -0.00125 0.010040625 1.74019667629e-11
152 1 -0.030121875 -0.00125 0.011221875 1.22156214432e-15
153 1 -0.030121875 -0.00125 0.012403125 6.01557630165e-07
154 1 -0.030121875 -0.00125 0.013584375 0.0
155 1 -0.030121875 -0.00125 0.014765625 1.74019667629e-11
156 1 -0.030121875 -0.00125 0.015946875 0.0
157 1 -0.030121875 -0.00125 0.017128125 0.0
158 1 -0.030121875 -0.00125 0.018309375 0.000126658700522
159 1 -0.030121875 -0.00125 0.019490625 0.000178487785899
160 1 -0.030121875 -0.00125 0.020671875 0.0
161 1 -0.028940625 -0.00125 -0.021853125 0.0
162 1 -0.028940625 -0.00125 -0.020671875 0.0
163 1 -0.028940625 -0.00125 -0.019490625 0.0
164 1 -0.028940625 -0.00125 -0.018309375 0.0
165 1 -0.028940625 -0.00125 -0.017128125 0.0
166 1 -0.028940625 -0.00125 -0.015946875 0.0
167 1 -0.028940625 -0.00125 -0.014765625 0.0
168 1 -0.028940625 -0.00125 -0.013584375 0.0
169 1 -0.028940625 -0.00125 -0.012403125 0.0
170 1 -0.028940625 -0.00125 -0.011221875 0.0
171 1 -0.028940625 -0.00125 -0.010040625 0.0
172 1 -0.028940625 -0.00125 -0.008859375 1.74019667629e-11
173 1 -0.028940625 -0.00125 -0.007678125 0.00474645121499
174 1 -0.028940625 -0.00125 -0.006496875 0.0912340507322
175 1 -0.028940625 -0.00125 -0.005315625 0.0138696939255
176 1 -0.028940625 -0.00125 -0.004134375 0.0622852805866
177 1 -0.028940625 -0.00125 -0.002953125 6.01557630165e-07
178 1 -0.028940625 -0.00125 -0.001771875 0.0
179 1 -0.028940625 -0.00125 -0.000590625 0.0
180 1 -0.028940625 -0.00125 0.000590625 0.0
181 1 -0.028940625 -0.00125 0.001771875 0.0
182 1 -0.028940625 -0.00125 0.002953125 0.0
183 1 -0.028940625 -0.00125 0.004134375 0.0
184 1 -0.028940625 -0.00125 0.005315625 0.0
185 1 -0.028940625 -0.00125 0.006496875 0.0
186 1 -0.028940625 -0.00125 0.007678125 0.0
187 1 -0.028940625 -0.00125 0.008859375 0.0
188 1 -0.028940625 -0.00125 0.010040625 0.0
189 1 -0.028940625 -0.00125 0.011221875 0.0
190 1 -0.028940625 -0.00125 0.012403125 0.0
191 1 -0.028940625 -0.00125 0.013584375 0.0
192 1 -0.028940625 -0.00125 0.014765625 0.0
193 1 -0.028940625 -0.00125 0.015946875 0.0
194 1 -0.028940625 -0.00125 0.017128125 0.0
195 1 -0.028940625 -0.00125 0.018309375 0.0
196 1 -0.028940625 -0.00125 0.019490625 0.000126658700522
197 1 -0.028940625 -0.00125 0.020671875 0.000245540111831
198 1 -0.028940625 -0.00125 0.021853125 0.188410584854
199 1 -0.027759375 -0.00125 -0.024215625 0.0
200 1 -0.027759375 -0.00125 -0.023034375 0.0
201 1 -0.027759375 -0.00125 -0.021853125 0.0
202 1 -0.027759375 -0.00125 -0.020671875 0.0
203 1 -0.027759375 -0.00125 -0.019490625 0.0
204 1 -0.027759375 -0.00125 -0.018309375 0.0
205 1 -0.027759375 -0.00125 -0.017128125 0.0
206 1 -0.027759375 -0.00125 -0.015946875 0.0
207 1 -0.027759375 -0.00125 -0.014765625 0.0
208 1 -0.027759375 -0.00125 -0.013584375 0.0
209 1 -0.027759375 -0.00125 -0.012403125 0.0
210 1 -0.027759375 -0.00125 -0.011221875 1.74019667629e-11
211 1 -0.027759375 -0.00125 -0.010040625 0.0
212 1 -0.027759375 -0.00125 -0.008859375 0.0
213 1 -0.027759375 -0.00125 -0.007678125 1.74019667629e-11
214 1 -0.027759375 -0.00125 -0.006496875 0.136454910525
215 1 -0.027759375 -0.00125 -0.005315625 0.0443322841124
216 1 -0.027759375 -0.00125 -0.004134375 0.114532075754
217 1 -0.027759375 -0.00125 -0.002953125 0.123928325831
218 1 -0.027759375 -0.00125 -0.001771875 0.0509111013046
219 1 -0.027759375 -0.00125 -0.000590625 0.119202686097
220 1 -0.027759375 -0.00125 0.000590625 0.14929428164
221 1 -0.027759375 -0.00125 0.001771875 0.0827704828178
222 1 -0.027759375 -0.00125 0.002953125 0.0381872649833
223 1 -0.027759375 -0.00125 0.004134375 0.00322594350264
224 1 -0.027759375 -0.00125 0.005315625 1.22156214432e-15
225 1 -0.027759375 -0.00125 0.006496875 0.0
226 1 -0.027759375 -0.00125 0.007678125 0.0
227 1 -0.027759375 -0.00125 0.008859375 1.74019667629e-11
228 1 -0.027759375 -0.00125 0.010040625 1.74019667629e-11
229 1 -0.027759375 -0.00125 0.011221875 1.74019667629e-11
230 1 -0.027759375 -0.00125 0.012403125 1.74019667629e-11
231 1 -0.027759375 -0.00125 0.013584375 1.28754471296e-08
232 1 -0.027759375 -0.00125 0.014765625 0.0
233 1 -0.027759375 -0.00125 0.015946875 0.0
234 1 -0.027759375 -0.00125 0.017128125 0.0
235 1 -0.027759375 -0.00125 0.018309375 0.0
236 1 -0.027759375 -0.00125 0.019490625 1.58379826604e-05
237 1 -0.027759375 -0.00125 0.020671875 0.0381872278205
238 1 -0.027759375 -0.00125 0.021853125 0.659020658461
239 1 -0.027759375 -0.00125 0.023034375 0.298418480181
240 1 -0.027759375 -0.00125 0.024215625 1.7269595626e-06
241 1 -0.026578125 -0.00125 -0.026578125 0.0
242 1 -0.026578125 -0.00125 -0.025396875 0.0
243 1 -0.026578125 -0.00125 -0.024215625 0.0
244 1 -0.026578125 -0.00125 -0.023034375 0.0
245 1 -0.026578125 -0.00125 -0.021853125 0.0
246 1 -0.026578125 -0.00125 -0.020671875 0.0
247 1 -0.026578125 -0.00125 -0.019490625 0.0
248 1 -0.026578125 -0.00125 -0.018309375 0.0
249 1 -0.026578125 -0.00125 -0.017128125 0.0
250 1 -0.026578125 -0.00125 -0.015946875 1.28754471296e-08
251 1 -0.026578125 -0.00125 -0.014765625 1.28752206004e-08
252 1 -0.026578125 -0.00125 -0.013584375 0.000182204724313
253 1 -0.026578125 -0.00125 -0.012403125 0.00019868031303
254 1 -0.026578125 -0.00125 -0.011221875 1.74019667629e-11
255 1 -0.026578125 -0.00125 -0.010040625 1.74019667629e-11
256 1 -0.026578125 -0.00125 -0.008859375 1.77729209249e-06
257 1 -0.026578125 -0.00125 -0.007678125 5.56342681978e-05
258 1 -0.026578125 -0.00125 -0.006496875 0.0582623613377
259 1 -0.026578125 -0.00125 -0.005315625 0.312303395346
260 1 -0.026578125 -0.00125 -0.004134375 0.0229930361404
261 1 -0.026578125 -0.00125 -0.002953125 0.0034987279089
262 1 -0.026578125 -0.00125 -0.001771875 0.0229930266456
263 1 -0.026578125 -0.00125 -0.000590625 0.0600767561481
264 1 -0.026578125 -0.00125 0.000590625 0.0122342666721
265 1 -0.026578125 -0.00125 0.001771875 0.00734858299864
266 1 -0.026578125 -0.00125 0.002953125 0.0529663073376
267 1 -0.026578125 -0.00125 0.004134375 0.17575893658
268 1 -0.026578125 -0.00125 0.005315625 0.0412041479083
269 1 -0.026578125 -0.00125 0.006496875 0.000375784162605
270 1 -0.026578125 -0.00125 0.007678125 2.79378975481e-22
271 1 -0.026578125 -0.00125 0.008859375 0.0
272 1 -0.026578125 -0.00125 0.010040625 5.5634138017e-05
273 1 -0.026578125 -0.00125 0.011221875 0.00198208350256
274 1 -0.026578125 -0.00125 0.012403125 0.000741931199387
275 1 -0.026578125 -0.00125 0.013584375 0.000483155496342
276 1 -0.026578125 -0.00125 0.014765625 1.74019667629e-11
277 1 -0.026578125 -0.00125 0.015946875 2.79378975481e-22
278 1 -0.026578125 -0.00125 0.017128125 0.0
279 1 -0.026578125 -0.00125 0.018309375 0.0
280 1 -0.026578125 -0.00125 0.019490625 7.49709589486e-44
281 1 -0.026578125 -0.00125 0.020671875 0.00228022268595
282 1 -0.026578125 -0.00125 0.021853125 0.286812771634
283 1 -0.026578125 -0.00125 0.023034375 0.306751214506
284 1 -0.026578125 -0.00125 0.024215625 3.70295753552e-05
285 1 -0.026578125 -0.00125 0.025396875 0.0
286 1 -0.026578125 -0.00125 0.026578125 0.0
287 1 -0.025396875 -0.00125 -0.026578125 0.0
288 1 -0.025396875 -0.00125 -0.025396875 0.0
289 1 -0.025396875 -0.00125 -0.024215625 0.0
290 1 -0.025396875 -0.00125 -0.023034375 0.0
291 1 -0.025396875 -0.00125 -0.021853125 0.0
292 1 -0.025396875 -0.00125 -0.020671875 0.0
293 1 -0.025396875 -0.00125 -0.019490625 0.0
294 1 -0.025396875 -0.00125 -0.018309375 0.0
295 1 -0.025396875 -0.00125 -0.017128125 0.00668182974929
296 1 -0.025396875 -0.00125 -0.015946875 0.00474645121499
297 1 -0.025396875 -0.00125 -0.014765625 0.00154813293271
298 1 -0.025396875 -0.00125 -0.013584375 0.0564721843312
299 1 -0.025396875 -0.00125 -0.012403125 0.0622852805866
300 1 -0.025396875 -0.00125 -0.011221875 0.00668182974929
301 1 -0.025396875 -0.00125 -0.010040625 0.000126657572948
302 1 -0.025396875 -0.00125 -0.008859375 1.74019667629e-11
303 1 -0.025396875 -0.00125 -0.007678125 0.000126657572948
304 1 -0.025396875 -0.00125 -0.006496875 0.1335352011
305 1 -0.025396875 -0.00125 -0.005315625 0.263674497482
306 1 -0.025396875 -0.00125 -0.004134375 0.000299132858986
307 1 -0.025396875 -0.00125 -0.002953125 0.000299132858986
308 1 -0.025396875 -0.00125 -0.001771875 1.74019667629e-11
309 1 -0.025396875 -0.00125 -0.000590625 0.0
310 1 -0.025396875 -0.00125 0.000590625 0.0
311 1 -0.025396875 -0.00125 0.001771875 0.0
312 1 -0.025396875 -0.00125 0.002953125 1.74019667629e-11
313 1 -0.025396875 -0.00125 0.004134375 0.091233852548
314 1 -0.025396875 -0.00125 0.005315625 0.263674497482
315 1 -0.025396875 -0.00125 0.006496875 0.281289939101
316 1 -0.025396875 -0.00125 0.007678125 0.091233852548
317 1 -0.025396875 -0.00125 0.008859375 0.000891017573599
318 1 -0.025396875 -0.00125 0.010040625 4.52220221462e-06
319 1 -0.025396875 -0.00125 0.011221875 0.000299131636816
320 1 -0.025396875 -0.00125 0.012403125 1.74019667629e-11
321 1 -0.025396875 -0.00125 0.013584375 5.5634138017e-05
322 1 -0.025396875 -0.00125 0.014765625 0.0138696939255
323 1 -0.025396875 -0.00125 0.015946875 6.01557630165e-07
324 1 -0.025396875 -0.00125 0.017128125 0.0
325 1 -0.025396875 -0.00125 0.018309375 0.0
326 1 -0.025396875 -0.00125 0.019490625 0.0
327 1 -0.025396875 -0.00125 0.020671875 4.52227625942e-06
328 1 -0.025396875 -0.00125 0.021853125 0.292342717184
329 1 -0.025396875 -0.00125 0.023034375 0.551464182117
330 1 -0.025396875 -0.00125 0.024215625 0.0138696939255
331 1 -0.025396875 -0.00125 0.025396875 0.0
332 1 -0.025396875 -0.00125 0.026578125 0.0
333 1 -0.024215625 -0.00125 -0.027759375 0.0
334 1 -0.024215625 -0.00125 -0.026578125 0.0
335 1 -0.024215625 -0.00125 -0.025396875 0.0
336 1 -0.024215625 -0.00125 -0.024215625 0.0
337 1 -0.024215625 -0.00125 -0.023034375 0.0
338 1 -0.024215625 -0.00125 -0.021853125 0.0
339 1 -0.024215625 -0.00125 -0.020671875 0.0
340 1 -0.024215625 -0.00125 -0.019490625 0.0
341 1 -0.024215625 -0.00125 -0.018309375 4.52227625942e-06
342 1 -0.024215625 -0.00125 -0.017128125 0.00154813293271
343 1 -0.024215625 -0.00125 -0.015946875 0.000891023127979
344 1 -0.024215625 -0.00125 -0.014765625 0.000126658700522
345 1 -0.024215625 -0.00125 -0.013584375 0.0122342469149
346 1 -0.024215625 -0.00125 -0.012403125 0.114532075754
347 1 -0.024215625 -0.00125 -0.011221875 0.0999860491522
348 1 -0.024215625 -0.00125 -0.010040625 0.00474645121499
349 1 -0.024215625 -0.00125 -0.008859375 0.0
350 1 -0.024215625 -0.00125 -0.007678125 0.000299131636816
351 1 -0.024215625 -0.00125 -0.006496875 0.167516386218
352 1 -0.024215625 -0.00125 -0.005315625 0.379197622445
353 1 -0.024215625 -0.00125 -0.004134375 0.0999860491522
354 1 -0.024215625 -0.00125 -0.002953125 0.000299131636816
355 1 -0.024215625 -0.00125 -0.001771875 0.0
356 1 -0.024215625 -0.00125 -0.000590625 0.0
357 1 -0.024215625 -0.00125 0.000590625 0.0
358 1 -0.024215625 -0.00125 0.001771875 4.52220221462e-06
359 1 -0.024215625 -0.00125 0.002953125 0.000299131636816
360 1 -0.024215625 -0.00125 0.004134375 0.0138696939255
361 1 -0.024215625 -0.00125 0.005315625 0.0443322974297
362 1 -0.024215625 -0.00125 0.006496875 0.167516429113
363 1 -0.024215625 -0.00125 0.007678125 0.31008152194
364 1 -0.024215625 -0.00125 0.008859375 0.14929428164
365 1 -0.024215625 -0.00125 0.010040625 0.0138696939255
366 1 -0.024215625 -0.00125 0.011221875 1.22156214432e-15
367 1 -0.024215625 -0.00125 0.012403125 1.74019667629e-11
368 1 -0.024215625 -0.00125 0.013584375 3.07877004318e-05
369 1 -0.024215625 -0.00125 0.014765625 0.0746186412079
370 1 -0.024215625 -0.00125 0.015946875 0.0622852495443
371 1 -0.024215625 -0.00125 0.017128125 6.01557630165e-07
372 1 -0.024215625 -0.00125 0.018309375 0.0
373 1 -0.024215625 -0.00125 0.019490625 0.0
374 1 -0.024215625 -0.00125 0.020671875 0.00154813293271
375 1 -0.024215625 -0.00125 0.021853125 0.372493358291
376 1 -0.024215625 -0.00125 0.023034375 0.292342717184
377 1 -0.024215625 -0.00125 0.024215625 0.000126658700522
378 1 -0.024215625 -0.00125 0.025396875 1.74019667629e-11
379 1 -0.024215625 -0.00125 0.026578125 0.0
380 1 -0.024215625 -0.00125 0.027759375 0.0
381 1 -0.023034375 -0.00125 -0.027759375 0.0
382 1 -0.023034375 -0.00125 -0.026578125 0.0
383 1 -0.023034375 -0.00125 -0.025396875 0.0
384 1 -0.023034375 -0.00125 -0.024215625 0.0
385 1 -0.023034375 -0.00125 -0.023034375 0.0
386 1 -0.023034375 -0.00125 -0.021853125 0.0
387 1 -0.023034375 -0.00125 -0.020671875 0.0
388 1 -0.023034375 -0.00125 -0.019490625 1.58378774223e-05
389 1 -0.023034375 -0.00125 -0.018309375 6.01557630165e-07
390 1 -0.023034375 -0.00125 -0.017128125 0.00154813293271
391 1 -0.023034375 -0.00125 -0.015946875 0.0138696939255
392 1 -0.023034375 -0.00125 -0.014765625 0.000126658700522
393 1 -0.023034375 -0.00125 -0.013584375 0.0047464548169
394 1 -0.023034375 -0.00125 -0.012403125 0.133535038668
395 1 -0.023034375 -0.00125 -0.011221875 0.14929428164
396 1 -0.023034375 -0.00125 -0.010040625 0.0138696939255
397 1 -0.023034375 -0.00125 -0.008859375 1.74019667629e-11
398 1 -0.023034375 -0.00125 -0.007678125 0.000126657572948
399 1 -0.023034375 -0.00125 -0.006496875 0.194580242303
400 1 -0.023034375 -0.00125 -0.005315625 0.477624006874
401 1 -0.023034375 -0.00125 -0.004134375 0.186171540908
402 1 -0.023034375 -0.00125 -0.002953125 1.74019667629e-11
403 1 -0.023034375 -0.00125 -0.001771875 0.0
404 1 -0.023034375 -0.00125 -0.000590625 0.0
405 1 -0.023034375 -0.00125 0.000590625 0.0
406 1 -0.023034375 -0.00125 0.001771875 1.74019667629e-11
407 1 -0.023034375 -0.00125 0.002953125 0.000126657572948
408 1 -0.023034375 -0.00125 0.004134375 0.00154812961495
409 1 -0.023034375 -0.00125 0.005315625 4.52220221462e-06
410 1 -0.023034375 -0.00125 0.006496875 0.0138697436361
411 1 -0.023034375 -0.00125 0.007678125 0.114532075754
412 1 -0.023034375 -0.00125 0.008859375 0.114532075754
413 1 -0.023034375 -0.00125 0.010040625 0.129668570718
414 1 -0.023034375 -0.00125 0.011221875 0.00154812961495
415 1 -0.023034375 -0.00125 0.012403125 0.00154812961495
416 1 -0.023034375 -0.00125 0.013584375 1.28754471296e-08
417 1 -0.023034375 -0.00125 0.014765625 0.000891017573599
418 1 -0.023034375 -0.00125 0.015946875 0.114532075754
419 1 -0.023034375 -0.00125 0.017128125 0.0550579642476
420 1 -0.023034375 -0.00125 0.018309375 0.0199375166154
421 1 -0.023034375 -0.00125 0.019490625 0.000255126476125
422 1 -0.023034375 -0.00125 0.020671875 0.00154813293271
423 1 -0.023034375 -0.00125 0.021853125 0.470910937833
424 1 -0.023034375 -0.00125 0.023034375 0.14929428164
425 1 -0.023034375 -0.00125 0.024215625 0.0
426 1 -0.023034375 -0.00125 0.025396875 0.0
427 1 -0.023034375 -0.00125 0.026578125 0.0
428 1 -0.023034375 -0.00125 0.027759375 0.00106278235535
429 1 -0.021853125 -0.00125 -0.028940625 0.0
430 1 -0.021853125 -0.00125 -0.027759375 0.0
431 1 -0.021853125 -0.00125 -0.026578125 0.0
432 1 -0.021853125 -0.00125 -0.025396875 0.0
433 1 -0.021853125 -0.00125 -0.024215625 0.0
434 1 -0.021853125 -0.00125 -0.023034375 0.0
435 1 -0.021853125 -0.00125 -0.021853125 0.0
436 1 -0.021853125 -0.00125 -0.020671875 0.0
437 1 -0.021853125 -0.00125 -0.019490625 0.0364314562571
438 1 -0.021853125 -0.00125 -0.018309375 0.0138696939255
439 1 -0.021853125 -0.00125 -0.017128125 0.0138696939255
440 1 -0.021853125 -0.00125 -0.015946875 0.0443322841124
441 1 -0.021853125 -0.00125 -0.014765625 0.00474645121499
442 1 -0.021853125 -0.00125 -0.013584375 0.0085515641959
443 1 -0.021853125 -0.00125 -0.012403125 0.0443322841124
444 1 -0.021853125 -0.00125 -0.011221875 0.14929428164
445 1 -0.021853125 -0.00125 -0.010040625 0.0698876476892
446 1 -0.021853125 -0.00125 -0.008859375 0.00154813293271
447 1 -0.021853125 -0.00125 -0.007678125 0.00668184101894
448 1 -0.021853125 -0.00125 -0.006496875 0.167516643591
449 1 -0.021853125 -0.00125 -0.005315625 0.448535349767
450 1 -0.021853125 -0.00125 -0.004134375 0.091233852548
451 1 -0.021853125 -0.00125 -0.002953125 0.0
452 1 -0.021853125 -0.00125 -0.001771875 0.0
453 1 -0.021853125 -0.00125 -0.000590625 0.0
454 1 -0.021853125 -0.00125 0.000590625 0.0
455 1 -0.021853125 -0.00125 0.001771875 0.0
456 1 -0.021853125 -0.00125 0.002953125 1.74019667629e-11
457 1 -0.021853125 -0.00125 0.004134375 0.0
458 1 -0.021853125 -0.00125 0.005315625 0.0
459 1 -0.021853125 -0.00125 0.006496875 1.58378774223e-05
460 1 -0.021853125 -0.00125 0.007678125 0.0324964072365
461 1 -0.021853125 -0.00125 0.008859375 0.159358746116
462 1 -0.021853125 -0.00125 0.010040625 0.0443322841124
463 1 -0.021853125 -0.00125 0.011221875 0.00668182974929
464 1 -0.021853125 -0.00125 0.012403125 0.0443322974297
465 1 -0.021853125 -0.00125 0.013584375 0.00734856143324
466 1 -0.021853125 -0.00125 0.014765625 0.00474644221021
467 1 -0.021853125 -0.00125 0.015946875 0.0138696939255
468 1 -0.021853125 -0.00125 0.017128125 0.0443323240644
469 1 -0.021853125 -0.00125 0.018309375 0.159358746116
470 1 -0.021853125 -0.00125 0.019490625 0.114531900931
471 1 -0.021853125 -0.00125 0.020671875 0.114532114604
472 1 -0.021853125 -0.00125 0.021853125 0.580549910179
473 1 -0.021853125 -0.00125 0.023034375 0.14929428164
474 1 -0.021853125 -0.00125 0.024215625 0.0
475 1 -0.021853125 -0.00125 0.025396875 0.0
476 1 -0.021853125 -0.00125 0.026578125 0.0
477 1 -0.021853125 -0.00125 0.027759375 0.000245540111831
478 1 -0.021853125 -0.00125 0.028940625 0.0459959987098
479 1 -0.020671875 -0.00125 -0.030121875 0.0
480 1 -0.020671875 -0.00125 -0.028940625 0.0
481 1 -0.020671875 -0.00125 -0.027759375 0.0
482 1 -0.020671875 -0.00125 -0.026578125 0.0
483 1 -0.020671875 -0.00125 -0.025396875 0.0
484 1 -0.020671875 -0.00125 -0.024215625 0.0
485 1 -0.020671875 -0.00125 -0.023034375 0.0
486 1 -0.020671875 -0.00125 -0.021853125 0.0
487 1 -0.020671875 -0.00125 -0.020671875 1.74019667629e-11
488 1 -0.020671875 -0.00125 -0.019490625 0.0229930171508
489 1 -0.020671875 -0.00125 -0.018309375 0.0698876476892
490 1 -0.020671875 -0.00125 -0.017128125 0.0443322841124
491 1 -0.020671875 -0.00125 -0.015946875 0.0443322841124
492 1 -0.020671875 -0.00125 -0.014765625 0.0443322841124
493 1 -0.020671875 -0.00125 -0.013584375 0.0207856853608
494 1 -0.020671875 -0.00125 -0.012403125 0.0138696939255
495 1 -0.020671875 -0.00125 -0.011221875 0.0293069007767
496 1 -0.020671875 -0.00125 -0.010040625 0.0999860491522
497 1 -0.020671875 -0.00125 -0.008859375 0.091233852548
498 1 -0.020671875 -0.00125 -0.007678125 0.0175125891118
499 1 -0.020671875 -0.00125 -0.006496875 0.162407426649
500 1 -0.020671875 -0.00125 -0.005315625 0.60962547119
501 1 -0.020671875 -0.00125 -0.004134375 0.0622852495443
502 1 -0.020671875 -0.00125 -0.002953125 4.52220221462e-06
503 1 -0.020671875 -0.00125 -0.001771875 1.74019667629e-11
504 1 -0.020671875 -0.00125 -0.000590625 1.74019667629e-11
505 1 -0.020671875 -0.00125 0.000590625 1.58379826604e-05
506 1 -0.020671875 -0.00125 0.001771875 0.0
507 1 -0.020671875 -0.00125 0.002953125 1.74019667629e-11
508 1 -0.020671875 -0.00125 0.004134375 0.0
509 1 -0.020671875 -0.00125 0.005315625 0.0
510 1 -0.020671875 -0.00125 0.006496875 3.14925560351e-13
511 1 -0.020671875 -0.00125 0.007678125 0.186171540908
512 1 -0.020671875 -0.00125 0.008859375 0.321196490136
513 1 -0.020671875 -0.00125 0.010040625 0.0999860491522
514 1 -0.020671875 -0.00125 0.011221875 0.00474644221021
515 1 -0.020671875 -0.00125 0.012403125 0.00668182974929
516 1 -0.020671875 -0.00125 0.013584375 0.0529663073376
517 1 -0.020671875 -0.00125 0.014765625 0.114532075754
518 1 -0.020671875 -0.00125 0.015946875 0.0199375166154
519 1 -0.020671875 -0.00125 0.017128125 0.00474645121499
520 1 -0.020671875 -0.00125 0.018309375 0.0243767756543
521 1 -0.020671875 -0.00125 0.019490625 0.0999860491522
522 1 -0.020671875 -0.00125 0.020671875 0.40155560828
523 1 -0.020671875 -0.00125 0.021853125 0.803307769565
524 1 -0.020671875 -0.00125 0.023034375 0.0443322841124
525 1 -0.020671875 -0.00125 0.024215625 0.0
526 1 -0.020671875 -0.00125 0.025396875 0.0
527 1 -0.020671875 -0.00125 0.026578125 1.28754471296e-08
528 1 -0.020671875 -0.00125 0.027759375 0.00154813293271
529 1 -0.020671875 -0.00125 0.028940625 0.00255490305485
530 1 -0.020671875 -0.00125 0.030121875 0.000167490860231
531 1 -0.019490625 -0.00125 -0.031303125 0.0
532 1 -0.019490625 -0.00125 -0.030121875 0.0
533 1 -0.019490625 -0.00125 -0.028940625 0.0
534 1 -0.019490625 -0.00125 -0.027759375 0.0
535 1 -0.019490625 -0.00125 -0.026578125 0.0
536 1 -0.019490625 -0.00125 -0.025396875 0.0
537 1 -0.019490625 -0.00125 -0.024215625 0.0
538 1 -0.019490625 -0.00125 -0.023034375 0.0
539 1 -0.019490625 -0.00125 -0.021853125 0.0
540 1 -0.019490625 -0.00125 -0.020671875 0.0
541 1 -0.019490625 -0.00125 -0.019490625 0.000535662176186
542 1 -0.019490625 -0.00125 -0.018309375 0.180950835502
543 1 -0.019490625 -0.00125 -0.017128125 0.194580242303
544 1 -0.019490625 -0.00125 -0.015946875 0.172658474079
545 1 -0.019490625 -0.00125 -0.014765625 0.205178839796
546 1 -0.019490625 -0.00125 -0.013584375 0.0750185884107
547 1 -0.019490625 -0.00125 -0.012403125 0.0138696939255
548 1 -0.019490625 -0.00125 -0.011221875 0.0207856853608
549 1 -0.019490625 -0.00125 -0.010040625 0.0207856853608
550 1 -0.019490625 -0.00125 -0.008859375 0.0138696939255
551 1 -0.019490625 -0.00125 -0.007678125 0.0138696939255
552 1 -0.019490625 -0.00125 -0.006496875 0.0373043055469
553 1 -0.019490625 -0.00125 -0.005315625 0.46531714498
554 1 -0.019490625 -0.00125 -0.004134375 0.164446838546
555 1 -0.019490625 -0.00125 -0.002953125 0.0113118914228
556 1 -0.019490625 -0.00125 -0.001771875 0.0267810712314
557 1 -0.019490625 -0.00125 -0.000590625 0.0443321509394
558 1 -0.019490625 -0.00125 0.000590625 0.231493635721
559 1 -0.019490625 -0.00125 0.001771875 0.154307310461
560 1 -0.019490625 -0.00125 0.002953125 0.024376746242
561 1 -0.019490625 -0.00125 0.004134375 0.00474644221021
562 1 -0.019490625 -0.00125 0.005315625 0.0122342732579
563 1 -0.019490625 -0.00125 0.006496875 0.164957621962
564 1 -0.019490625 -0.00125 0.007678125 0.387020823644
565 1 -0.019490625 -0.00125 0.008859375 0.172658474079
566 1 -0.019490625 -0.00125 0.010040625 0.0762228548539
567 1 -0.019490625 -0.00125 0.011221875 0.17783230202
568 1 -0.019490625 -0.00125 0.012403125 0.107179852095
569 1 -0.019490625 -0.00125 0.013584375 0.043382382719
570 1 -0.019490625 -0.00125 0.014765625 0.0509112007263
571 1 -0.019490625 -0.00125 0.015946875 0.0564723479874
572 1 -0.019490625 -0.00125 0.017128125 0.0412041993389
573 1 -0.019490625 -0.00125 0.018309375 0.03195286965
574 1 -0.019490625 -0.00125 0.019490625 0.0181020176854
575 1 -0.019490625 -0.00125 0.020671875 0.482098940516
576 1 -0.019490625 -0.00125 0.021853125 0.321195698927
577 1 -0.019490625 -0.00125 0.023034375 6.01557630165e-07
578 1 -0.019490625 -0.00125 0.024215625 1.28754471296e-08
579 1 -0.019490625 -0.00125 0.025396875 0.000535658751952
580 1 -0.019490625 -0.00125 0.026578125 0.00757992213234