ITEM: TIMESTEP
0
ITEM: NUMBER OF ATOMS
3080
ITEM: BOX BOUNDS ss ss ss
-3.7007399999999996e-02 3.7007399999999996e-02
-2.0002499999999999e-03 2.5000000000000004e-07
-3.7007399999999996e-02 3.7007399999999996e-02
ITEM: ATOMS id type x y z c_1
0 1 -0.037209375 -0.00125 -0.000590625 0.0110734108721
1 1 -0.036028125 -0.00125 -0.007678125 0.000455413315469
2 1 -0.036028125 -0.00125 -0.006496875 0.0730278874292
3 1 -0.036028125 -0.00125 -0.005315625 0.0125514868443
4 1 -0.036028125 -0.00125 -0.004134375 0.0
5 1 -0.036028125 -0.00125 -0.002953125 0.0
6 1 -0.036028125 -0.00125 -0.001771875 0.0
7 1 -0.036028125 -0.00125 -0.000590625 1.43358215872e-06
8 1 -0.036028125 -0.00125 0.000590625 0.0418564289367
9 1 -0.036028125 -0.00125 0.001771875 0.0878124945944
10 1 -0.036028125 -0.00125 0.002953125 0.265870959332
11 1 -0.036028125 -0.00125 0.004134375 0.538038781003
12 1 -0.036028125 -0.00125 0.005315625 0.00207820714601
13 1 -0.036028125 -0.00125 0.006496875 0.000104426574864
14 1 -0.036028125 -0.00125 0.007678125 0.0154732620181
15 1 -0.034846875 -0.00125 -0.011221875 0.000455413315469
16 1 -0.034846875 -0.00125 -0.010040625 0.135479596443
17 1 -0.034846875 -0.00125 -0.008859375 0.671872252913
18 1 -0.034846875 -0.00125 -0.007678125 0.317991079153
19 1 -0.034846875 -0.00125 -0.006496875 0.00349873817525
20 1 -0.034846875 -0.00125 -0.005315625 0.000299132858986
21 1 -0.034846875 -0.00125 -0.004134375 0.0
22 1 -0.034846875 -0.00125 -0.002953125 0.0
23 1 -0.034846875 -0.00125 -0.001771875 0.0
24 1 -0.034846875 -0.00125 -0.000590625 0.0
25 1 -0.034846875 -0.00125 0.000590625 0.000299132858986
26 1 -0.034846875 -0.00125 0.001771875 0.123928325831
27 1 -0.034846875 -0.00125 0.002953125 0.529089062167
28 1 -0.034846875 -0.00125 0.004134375 0.517900216843
29 1 -0.034846875 -0.00125 0.005315625 0.186171540908
30 1 -0.034846875 -0.00125 0.006496875 0.0929620787821
31 1 -0.034846875 -0.00125 0.007678125 0.0100187543403
32 1 -0.034846875 -0.00125 0.008859375 0.0075399670332
33 1 -0.034846875 -0.00125 0.010040625 0.0358553761459
34 1 -0.034846875 -0.00125 0.011221875 0.00920066229086
35 1 -0.033665625 -0.00125 -0.013584375 0.000670431236425
36 1 -0.033665625 -0.00125 -0.012403125 0.148382227834
37 1 -0.033665625 -0.00125 -0.011221875 0.0328183764962
38 1 -0.033665625 -0.00125 -0.010040625 0.00154813293271
39 1 -0.033665625 -0.00125 -0.008859375 0.159358746116
40 1 -0.033665625 -0.00125 -0.007678125 0.464198454903
41 1 -0.033665625 -0.00125 -0.006496875 0.0138696939255
42 1 -0.033665625 -0.00125 -0.005315625 0.000126658700522
43 1 -0.033665625 -0.00125 -0.004134375 0.000126658700522
44 1 -0.033665625 -0.00125 -0.002953125 0.0
45 1 -0.033665625 -0.00125 -0.001771875 1.74019667629e-11
46 1 -0.033665625 -0.00125 -0.000590625 0.000126658700522
47 1 -0.033665625 -0.00125 0.000590625 0.000891017573599
48 1 -0.033665625 -0.00125 0.001771875 0.203051971158
49 1 -0.033665625 -0.00125 0.002953125 0.408265708296
50 1 -0.033665625 -0.00125 0.004134375 0.448535864695
51 1 -0.033665625 -0.00125 0.005315625 0.203051971158
52 1 -0.033665625 -0.00125 0.006496875 0.332326836347
53 1 -0.033665625 -0.00125 0.007678125 0.00154813293271
54 1 -0.033665625 -0.00125 0.008859375 0.0509111013046
55 1 -0.033665625 -0.00125 0.010040625 0.252716464147
56 1 -0.033665625 -0.00125 0.011221875 0.410173540619
57 1 -0.033665625 -0.00125 0.012403125 0.694168101415
58 1 -0.033665625 -0.00125 0.013584375 0.0398801511698
59 1 -0.032484375 -0.00125 -0.018309375 0.00920066229086
60 1 -0.032484375 -0.00125 -0.017128125 0.0180058544457
61 1 -0.032484375 -0.00125 -0.015946875 0.111699862422
62 1 -0.032484375 -0.00125 -0.014765625 0.0358227195596
63 1 -0.032484375 -0.00125 -0.013584375 0.00167037152101
64 1 -0.032484375 -0.00125 -0.012403125 0.00474645121499
65 1 -0.032484375 -0.00125 -0.011221875 0.000255130369019
66 1 -0.032484375 -0.00125 -0.010040625 0.0443322308432
67 1 -0.032484375 -0.00125 -0.008859375 0.205178839796
68 1 -0.032484375 -0.00125 -0.007678125 0.205179062488
69 1 -0.032484375 -0.00125 -0.006496875 0.174207462351
70 1 -0.032484375 -0.00125 -0.005315625 0.00154812961495
71 1 -0.032484375 -0.00125 -0.004134375 0.00154813293271
72 1 -0.032484375 -0.00125 -0.002953125 0.000126657572948
73 1 -0.032484375 -0.00125 -0.001771875 0.000535659512892
74 1 -0.032484375 -0.00125 -0.000590625 0.0459371094448
75 1 -0.032484375 -0.00125 0.000590625 0.186171759928
76 1 -0.032484375 -0.00125 0.001771875 0.272470466451
77 1 -0.032484375 -0.00125 0.002953125 0.0529663940961
78 1 -0.032484375 -0.00125 0.004134375 0.0267810196531
79 1 -0.032484375 -0.00125 0.005315625 0.215865164571
80 1 -0.032484375 -0.00125 0.006496875 0.132565506393
81 1 -0.032484375 -0.00125 0.007678125 4.52220221462e-06
82 1 -0.032484375 -0.00125 0.008859375 0.0844389123115
83 1 -0.032484375 -0.00125 0.010040625 0.177832605983
84 1 -0.032484375 -0.00125 0.011221875 0.15935900069
85 1 -0.032484375 -0.00125 0.012403125 0.629740855681
86 1 -0.032484375 -0.00125 0.013584375 0.0510910143654
87 1 -0.032484375 -0.00125 0.014765625 2.56728544141e-12
88 1 -0.032484375 -0.00125 0.015946875 3.79550074674e-11
89 1 -0.032484375 -0.00125 0.017128125 0.0110734108721
90 1 -0.032484375 -0.00125 0.018309375 0.0378159779673
91 1 -0.031303125 -0.00125 -0.019490625 0.00071191983557
92 1 -0.031303125 -0.00125 -0.018309375 0.00713505279549
93 1 -0.031303125 -0.00125 -0.017128125 0.00154813293271
94 1 -0.031303125 -0.00125 -0.015946875 0.010721438861
95 1 -0.031303125 -0.00125 -0.014765625 0.21372123369
96 1 -0.031303125 -0.00125 -0.013584375 0.141358367253
97 1 -0.031303125 -0.00125 -0.012403125 0.0138696939255
98 1 -0.031303125 -0.00125 -0.011221875 0.01386971523
99 1 -0.031303125 -0.00125 -0.010040625 0.0999860491522
100 1 -0.031303125 -0.00125 -0.008859375 0.339012100871
101 1 -0.031303125 -0.00125 -0.007678125 0.522376039939
102 1 -0.031303125 -0.00125 -0.006496875 0.312303116458
103 1 -0.031303125 -0.00125 -0.005315625 0.21372123369
104 1 -0.031303125 -0.00125 -0.004134375 0.0293069007767
105 1 -0.031303125 -0.00125 -0.002953125 0.00154813293271
106 1 -0.031303125 -0.00125 -0.001771875 0.0138696939255
107 1 -0.031303125 -0.00125 -0.000590625 1.5838087899e-05
108 1 -0.031303125 -0.00125 0.000590625 6.01557630165e-07
109 1 -0.031303125 -0.00125 0.001771875 1.74019667629e-11
110 1 -0.031303125 -0.00125 0.002953125 0.0
111 1 -0.031303125 -0.00125 0.004134375 0.00322594350264
112 1 -0.031303125 -0.00125 0.005315625 0.186171540908
113 1 -0.031303125 -0.00125 0.006496875 0.00089101923991
114 1 -0.031303125 -0.00125 0.007678125 1.74019667629e-11
115 1 -0.031303125 -0.00125 0.008859375 4.52220221462e-06
116 1 -0.031303125 -0.00125 0.010040625 1.74019667629e-11
117 1 -0.031303125 -0.00125 0.011221875 4.52227625942e-06
118 1 -0.031303125 -0.00125 0.012403125 0.292342717184
119 1 -0.031303125 -0.00125 0.013584375 0.141358161149
120 1 -0.031303125 -0.00125 0.014765625 0.01386971523
121 1 -0.031303125 -0.00125 0.015946875 0.0293069007767
122 1 -0.031303125 -0.00125 0.017128125 0.159358746116
123 1 -0.031303125 -0.00125 0.018309375 0.379394290328
124 1 -0.031303125 -0.00125 0.019490625 0.037816113573
125 1 -0.030121875 -0.00125 -0.020671875 0.0
126 1 -0.030121875 -0.00125 -0.019490625 0.0254506046346
127 1 -0.030121875 -0.00125 -0.018309375 0.0698876476892
128 1 -0.030121875 -0.00125 -0.017128125 0.00154813293271
129 1 -0.030121875 -0.00125 -0.015946875 0.0243767952624
130 1 -0.030121875 -0.00125 -0.014765625 0.0698876476892
131 1 -0.030121875 -0.00125 -0.013584375 0.095575355231
132 1 -0.030121875 -0.00125 -0.012403125 0.14929428164
133 1 -0.030121875 -0.00125 -0.011221875 0.0698876476892
134 1 -0.030121875 -0.00125 -0.010040625 0.149294323427
135 1 -0.030121875 -0.00125 -0.008859375 0.159358746116
136 1 -0.030121875 -0.00125 -0.007678125 0.470910984646
137 1 -0.030121875 -0.00125 -0.006496875 0.13353499806
138 1 -0.030121875 -0.00125 -0.005315625 0.186171540908
139 1 -0.030121875 -0.00125 -0.004134375 0.159358746116
140 1 -0.030121875 -0.00125 -0.002953125 0.0293069007767
141 1 -0.030121875 -0.00125 -0.001771875 0.00668184101894
142 1 -0.030121875 -0.00125 -0.000590625 0.00284458163855
143 1 -0.030121875 -0.00125 0.000590625 1.74019667629e-11
144 1 -0.030121875 -0.00125 0.001771875 0.0
145 1 -0.030121875 -0.00125 0.002953125 1.74019667629e-11
146 1 -0.030121875 -0.00125 0.004134375 0.00154813293271
147 1 -0.030121875 -0.00125 0.005315625 0.0293069007767
148 1 -0.030121875 -0.00125 0.006496875 0.0308802387238
149 1 -0.030121875 -0.00125 0.007678125 0.00474645121499
150 1 -0.030121875 -0.00125 0.008859375 0.00474644221021
151 1 -0.030121875 -0.00125 0.010040625 0.000126657572948
152 1 -0.030121875 -0.00125 0.011221875 0.000126657572948
153 1 -0.030121875 -0.00125 0.012403125 0.383667992273
154 1 -0.030121875 -0.00125 0.013584375 0.290130369044
155 1 -0.030121875 -0.00125 0.014765625 0.0443322841124
156 1 -0.030121875 -0.00125 0.015946875 0.169569401239
157 1 -0.030121875 -0.00125 0.017128125 0.631974825117
158 1 -0.030121875 -0.00125 0.018309375 0.361324541927
159 1 -0.030121875 -0.00125 0.019490625 0.00441522246933
160 1 -0.030121875 -0.00125 0.020671875 0.0
161 1 -0.028940625 -0.00125 -0.021853125 0.00466864259094
162 1 -0.028940625 -0.00125 -0.020671875 0.000572976738397
163 1 -0.028940625 -0.00125 -0.019490625 0.136454910525
164 1 -0.028940625 -0.00125 -0.018309375 0.14929428164
165 1 -0.028940625 -0.00125 -0.017128125 0.0443322841124
166 1 -0.028940625 -0.00125 -0.015946875 0.0293069007767
167 1 -0.028940625 -0.00125 -0.014765625 0.0443322841124
168 1 -0.028940625 -0.00125 -0.013584375 0.0364315046602
169 1 -0.028940625 -0.00125 -0.012403125 0.332326556717
170 1 -0.028940625 -0.00125 -0.011221875 0.350163781038
171 1 -0.028940625 -0.00125 -0.010040625 0.203052015623
172 1 -0.028940625 -0.00125 -0.008859375 0.0827704306511
173 1 -0.028940625 -0.00125 -0.007678125 0.5
174 1 -0.028940625 -0.00125 -0.006496875 0.343471624802
175 1 -0.028940625 -0.00125 -0.005315625 0.0999860863438
176 1 -0.028940625 -0.00125 -0.004134375 0.21372123369
177 1 -0.028940625 -0.00125 -0.002953125 0.0827704828178
178 1 -0.028940625 -0.00125 -0.001771875 0.0622852495443
179 1 -0.028940625 -0.00125 -0.000590625 0.238544232212
180 1 -0.028940625 -0.00125 0.000590625 0.186171540908
181 1 -0.028940625 -0.00125 0.001771875 0.186171540908
182 1 -0.028940625 -0.00125 0.002953125 0.21372123369
183 1 -0.028940625 -0.00125 0.004134375 0.321195978177
184 1 -0.028940625 -0.00125 0.005315625 0.372493358291
185 1 -0.028940625 -0.00125 0.006496875 0.306751214506
186 1 -0.028940625 -0.00125 0.007678125 0.159358746116
187 1 -0.028940625 -0.00125 0.008859375 0.0698876476892
188 1 -0.028940625 -0.00125 0.010040625 0.0509111013046
189 1 -0.028940625 -0.00125 0.011221875 0.0138696939255
190 1 -0.028940625 -0.00125 0.012403125 0.292342717184
191 1 -0.028940625 -0.00125 0.013584375 0.0564721694534
192 1 -0.028940625 -0.00125 0.014765625 0.0509111013046
193 1 -0.028940625 -0.00125 0.015946875 0.235286796702
194 1 -0.028940625 -0.00125 0.017128125 0.68991847806
195 1 -0.028940625 -0.00125 0.018309375 0.159358746116
196 1 -0.028940625 -0.00125 0.019490625 0.0293069873474
197 1 -0.028940625 -0.00125 0.020671875 0.0246256158462
198 1 -0.028940625 -0.00125 0.021853125 0.222363446324
199 1 -0.027759375 -0.00125 -0.024215625 0.0
200 1 -0.027759375 -0.00125 -0.023034375 0.00106278235535
201 1 -0.027759375 -0.00125 -0.021853125 0.019545473199
202 1 -0.027759375 -0.00125 -0.020671875 0.000126658700522
203 1 -0.027759375 -0.00125 -0.019490625 0.180950879072
204 1 -0.027759375 -0.00125 -0.018309375 0.159358746116
205 1 -0.027759375 -0.00125 -0.017128125 0.000126658700522
206 1 -0.027759375 -0.00125 -0.015946875 0.000891023127979
207 1 -0.027759375 -0.00125 -0.014765625 0.01386971523
208 1 -0.027759375 -0.00125 -0.013584375 0.0207856853608
209 1 -0.027759375 -0.00125 -0.012403125 0.123928325831
210 1 -0.027759375 -0.00125 -0.011221875 0.441823107051
211 1 -0.027759375 -0.00125 -0.010040625 0.321195978177
212 1 -0.027759375 -0.00125 -0.008859375 0.241806863156
213 1 -0.027759375 -0.00125 -0.007678125 0.21372123369
214 1 -0.027759375 -0.00125 -0.006496875 0.529088781288
215 1 -0.027759375 -0.00125 -0.005315625 0.332327069371
216 1 -0.027759375 -0.00125 -0.004134375 0.0698876476892
217 1 -0.027759375 -0.00125 -0.002953125 0.0622852495443
218 1 -0.027759375 -0.00125 -0.001771875 0.186171540908
219 1 -0.027759375 -0.00125 -0.000590625 0.42448306376
220 1 -0.027759375 -0.00125 0.000590625 0.363111256873
221 1 -0.027759375 -0.00125 0.001771875 0.493286914719
222 1 -0.027759375 -0.00125 0.002953125 0.441823153862
223 1 -0.027759375 -0.00125 0.004134375 0.453010380117
224 1 -0.027759375 -0.00125 0.005315625 0.281290216208
225 1 -0.027759375 -0.00125 0.006496875 0.713186904627
226 1 -0.027759375 -0.00125 0.007678125 0.430635859907
227 1 -0.027759375 -0.00125 0.008859375 0.343471904739
228 1 -0.027759375 -0.00125 0.010040625 0.263675002831
229 1 -0.027759375 -0.00125 0.011221875 0.123928365601
230 1 -0.027759375 -0.00125 0.012403125 0.408265193546
231 1 -0.027759375 -0.00125 0.013584375 0.0529663217973
232 1 -0.027759375 -0.00125 0.014765625 0.274673256093
233 1 -0.027759375 -0.00125 0.015946875 0.631974825117
234 1 -0.027759375 -0.00125 0.017128125 0.580550471812
235 1 -0.027759375 -0.00125 0.018309375 0.263675002831
236 1 -0.027759375 -0.00125 0.019490625 0.303423063994
237 1 -0.027759375 -0.00125 0.020671875 0.235286796702
238 1 -0.027759375 -0.00125 0.021853125 0.55903286818
239 1 -0.027759375 -0.00125 0.023034375 0.116073884862
240 1 -0.027759375 -0.00125 0.024215625 0.0
241 1 -0.026578125 -0.00125 -0.026578125 0.0
242 1 -0.026578125 -0.00125 -0.025396875 0.0
243 1 -0.026578125 -0.00125 -0.024215625 0.0
244 1 -0.026578125 -0.00125 -0.023034375 1.28754471296e-08
245 1 -0.026578125 -0.00125 -0.021853125 1.28752206004e-08
246 1 -0.026578125 -0.00125 -0.020671875 2.79378975481e-22
247 1 -0.026578125 -0.00125 -0.019490625 0.0418209374561
248 1 -0.026578125 -0.00125 -0.018309375 0.326759356069
249 1 -0.026578125 -0.00125 -0.017128125 0.321196490136
250 1 -0.026578125 -0.00125 -0.015946875 0.076223040211
251 1 -0.026578125 -0.00125 -0.014765625 0.036431516761
252 1 -0.026578125 -0.00125 -0.013584375 0.0856983035972
253 1 -0.026578125 -0.00125 -0.012403125 0.107179814045
254 1 -0.026578125 -0.00125 -0.011221875 0.0393805017402
255 1 -0.026578125 -0.00125 -0.010040625 0.156323465939
256 1 -0.026578125 -0.00125 -0.008859375 0.39037452881
257 1 -0.026578125 -0.00125 -0.007678125 0.53468285502
258 1 -0.026578125 -0.00125 -0.006496875 0.619126210548
259 1 -0.026578125 -0.00125 -0.005315625 0.747283032551
260 1 -0.026578125 -0.00125 -0.004134375 0.76145572232
261 1 -0.026578125 -0.00125 -0.002953125 0.554820744781
262 1 -0.026578125 -0.00125 -0.001771875 0.381431943169
263 1 -0.026578125 -0.00125 -0.000590625 0.271269998192
264 1 -0.026578125 -0.00125 0.000590625 0.0646352970577
265 1 -0.026578125 -0.00125 0.001771875 0.041204237912
266 1 -0.026578125 -0.00125 0.002953125 0.0293069873474
267 1 -0.026578125 -0.00125 0.004134375 0.0698874523288
268 1 -0.026578125 -0.00125 0.005315625 0.107179814045
269 1 -0.026578125 -0.00125 0.006496875 0.175241688126
270 1 -0.026578125 -0.00125 0.007678125 0.286813049125
271 1 -0.026578125 -0.00125 0.008859375 0.40155560828
272 1 -0.026578125 -0.00125 0.010040625 0.421687194756
273 1 -0.026578125 -0.00125 0.011221875 0.589497804083
274 1 -0.026578125 -0.00125 0.012403125 0.618567776255
275 1 -0.026578125 -0.00125 0.013584375 0.151795887911
276 1 -0.026578125 -0.00125 0.014765625 0.482098659636
277 1 -0.026578125 -0.00125 0.015946875 0.860608327149
278 1 -0.026578125 -0.00125 0.017128125 0.525732740375
279 1 -0.026578125 -0.00125 0.018309375 0.312303116458
280 1 -0.026578125 -0.00125 0.019490625 0.332326836347
281 1 -0.026578125 -0.00125 0.020671875 0.491049843846
282 1 -0.026578125 -0.00125 0.021853125 0.536920140318
283 1 -0.026578125 -0.00125 0.023034375 0.0187026777134
284 1 -0.026578125 -0.00125 0.024215625 2.38563261888e-06
285 1 -0.026578125 -0.00125 0.025396875 1.18571800471e-05
286 1 -0.026578125 -0.00125 0.026578125 0.000572971535964
287 1 -0.025396875 -0.00125 -0.026578125 0.0
288 1 -0.025396875 -0.00125 -0.025396875 0.0
289 1 -0.025396875 -0.00125 -0.024215625 0.0
290 1 -0.025396875 -0.00125 -0.023034375 0.0
291 1 -0.025396875 -0.00125 -0.021853125 0.0
292 1 -0.025396875 -0.00125 -0.020671875 1.74019667629e-11
293 1 -0.025396875 -0.00125 -0.019490625 0.00855160641309
294 1 -0.025396875 -0.00125 -0.018309375 0.419449528188
295 1 -0.025396875 -0.00125 -0.017128125 0.69657661113
296 1 -0.025396875 -0.00125 -0.015946875 0.3791971081
297 1 -0.025396875 -0.00125 -0.014765625 0.263674497482
298 1 -0.025396875 -0.00125 -0.013584375 0.238544232212
299 1 -0.025396875 -0.00125 -0.012403125 0.159358746116
300 1 -0.025396875 -0.00125 -0.011221875 0.0443322841124
301 1 -0.025396875 -0.00125 -0.010040625 0.159358746116
302 1 -0.025396875 -0.00125 -0.008859375 0.263675002831
303 1 -0.025396875 -0.00125 -0.007678125 0.511187741896
304 1 -0.025396875 -0.00125 -0.006496875 0.673240550781
305 1 -0.025396875 -0.00125 -0.005315625 0.580549910179
306 1 -0.025396875 -0.00125 -0.004134375 0.860608573582
307 1 -0.025396875 -0.00125 -0.002953125 0.551464650233
308 1 -0.025396875 -0.00125 -0.001771875 0.235286796702
309 1 -0.025396875 -0.00125 -0.000590625 0.199868416121
310 1 -0.025396875 -0.00125 0.000590625 0.230952197406
311 1 -0.025396875 -0.00125 0.001771875 0.259286610594
312 1 -0.025396875 -0.00125 0.002953125 0.305641859513
313 1 -0.025396875 -0.00125 0.004134375 0.203052015623
314 1 -0.025396875 -0.00125 0.005315625 0.0698876802493
315 1 -0.025396875 -0.00125 0.006496875 0.00668182524144
316 1 -0.025396875 -0.00125 0.007678125 0.0622852495443
317 1 -0.025396875 -0.00125 0.008859375 0.0243767756543
318 1 -0.025396875 -0.00125 0.010040625 0.0107214510125
319 1 -0.025396875 -0.00125 0.011221875 0.332326556717
320 1 -0.025396875 -0.00125 0.012403125 0.707657282816
321 1 -0.025396875 -0.00125 0.013584375 0.525732553122
322 1 -0.025396875 -0.00125 0.014765625 0.718709829977
323 1 -0.025396875 -0.00125 0.015946875 0.834531209026
324 1 -0.025396875 -0.00125 0.017128125 0.224469737872
325 1 -0.025396875 -0.00125 0.018309375 0.196692230435
326 1 -0.025396875 -0.00125 0.019490625 0.263674497482
327 1 -0.025396875 -0.00125 0.020671875 0.390374014268
328 1 -0.025396875 -0.00125 0.021853125 0.470910937833
329 1 -0.025396875 -0.00125 0.023034375 0.123928325831
330 1 -0.025396875 -0.00125 0.024215625 0.000126658700522
331 1 -0.025396875 -0.00125 0.025396875 0.00668182974929
332 1 -0.025396875 -0.00125 0.026578125 1.27653918126e-20
333 1 -0.024215625 -0.00125 -0.027759375 0.0
334 1 -0.024215625 -0.00125 -0.026578125 0.0
335 1 -0.024215625 -0.00125 -0.025396875 0.0
336 1 -0.024215625 -0.00125 -0.024215625 0.0
337 1 -0.024215625 -0.00125 -0.023034375 0.0
338 1 -0.024215625 -0.00125 -0.021853125 0.0
339 1 -0.024215625 -0.00125 -0.020671875 0.0
340 1 -0.024215625 -0.00125 -0.019490625 0.0827702393734
341 1 -0.024215625 -0.00125 -0.018309375 0.656528561823
342 1 -0.024215625 -0.00125 -0.017128125 0.466436304306
343 1 -0.024215625 -0.00125 -0.015946875 0.430635859907
344 1 -0.024215625 -0.00125 -0.014765625 0.529089062167
345 1 -0.024215625 -0.00125 -0.013584375 0.673240085032
346 1 -0.024215625 -0.00125 -0.012403125 0.602917575581
347 1 -0.024215625 -0.00125 -0.011221875 0.14929428164
348 1 -0.024215625 -0.00125 -0.010040625 0.224470234239
349 1 -0.024215625 -0.00125 -0.008859375 0.263674497482
350 1 -0.024215625 -0.00125 -0.007678125 0.159358746116
351 1 -0.024215625 -0.00125 -0.006496875 0.586142834047
352 1 -0.024215625 -0.00125 -0.005315625 0.900013988039
353 1 -0.024215625 -0.00125 -0.004134375 0.87607171394
354 1 -0.024215625 -0.00125 -0.002953125 0.627506641709
355 1 -0.024215625 -0.00125 -0.001771875 0.298988495482
356 1 -0.024215625 -0.00125 -0.000590625 0.0600766950136
357 1 -0.024215625 -0.00125 0.000590625 0.220161608427
358 1 -0.024215625 -0.00125 0.001771875 0.412738808647
359 1 -0.024215625 -0.00125 0.002953125 0.203052015623
360 1 -0.024215625 -0.00125 0.004134375 0.379197715963
361 1 -0.024215625 -0.00125 0.005315625 0.139391385346
362 1 -0.024215625 -0.00125 0.006496875 0.134506394838
363 1 -0.024215625 -0.00125 0.007678125 0.08277044804
364 1 -0.024215625 -0.00125 0.008859375 0.0199375166154
365 1 -0.024215625 -0.00125 0.010040625 0.0138696939255
366 1 -0.024215625 -0.00125 0.011221875 0.383667992273
367 1 -0.024215625 -0.00125 0.012403125 0.825792580894
368 1 -0.024215625 -0.00125 0.013584375 0.753835206335
369 1 -0.024215625 -0.00125 0.014765625 0.860608573582
370 1 -0.024215625 -0.00125 0.015946875 0.459723333625
371 1 -0.024215625 -0.00125 0.017128125 0.196692230435
372 1 -0.024215625 -0.00125 0.018309375 0.196692230435
373 1 -0.024215625 -0.00125 0.019490625 0.303422785529
374 1 -0.024215625 -0.00125 0.020671875 0.332326556717
375 1 -0.024215625 -0.00125 0.021853125 0.252716464147
376 1 -0.024215625 -0.00125 0.023034375 0.0999860491522
377 1 -0.024215625 -0.00125 0.024215625 0.000126658700522
378 1 -0.024215625 -0.00125 0.025396875 0.091233852548
379 1 -0.024215625 -0.00125 0.026578125 0.00474646562265
380 1 -0.024215625 -0.00125 0.027759375 1.7269595626e-06
381 1 -0.023034375 -0.00125 -0.027759375 0.0418564289367
382 1 -0.023034375 -0.00125 -0.026578125 0.00154813293271
383 1 -0.023034375 -0.00125 -0.025396875 0.000126658700522
384 1 -0.023034375 -0.00125 -0.024215625 0.000126658700522
385 1 -0.023034375 -0.00125 -0.023034375 0.0
386 1 -0.023034375 -0.00125 -0.021853125 0.0
387 1 -0.023034375 -0.00125 -0.020671875 0.0
388 1 -0.023034375 -0.00125 -0.019490625 0.0475688073201
389 1 -0.023034375 -0.00125 -0.018309375 0.361325055821
390 1 -0.023034375 -0.00125 -0.017128125 0.0999860863438
391 1 -0.023034375 -0.00125 -0.015946875 0.0381872649833
392 1 -0.023034375 -0.00125 -0.014765625 0.0698876476892
393 1 -0.023034375 -0.00125 -0.013584375 0.549226860608
394 1 -0.023034375 -0.00125 -0.012403125 0.678803556406
395 1 -0.023034375 -0.00125 -0.011221875 0.5
396 1 -0.023034375 -0.00125 -0.010040625 0.372493358291
397 1 -0.023034375 -0.00125 -0.008859375 0.169569401239
398 1 -0.023034375 -0.00125 -0.007678125 0.196692230435
399 1 -0.023034375 -0.00125 -0.006496875 0.151295037948
400 1 -0.023034375 -0.00125 -0.005315625 0.707657282816
401 1 -0.023034375 -0.00125 -0.004134375 0.627506641709
402 1 -0.023034375 -0.00125 -0.002953125 0.736324951228
403 1 -0.023034375 -0.00125 -0.001771875 0.105365860212
404 1 -0.023034375 -0.00125 -0.000590625 0.0122342732579
405 1 -0.023034375 -0.00125 0.000590625 0.0778403011007
406 1 -0.023034375 -0.00125 0.001771875 0.310081568404
407 1 -0.023034375 -0.00125 0.002953125 0.540276713188
408 1 -0.023034375 -0.00125 0.004134375 0.419450089821
409 1 -0.023034375 -0.00125 0.005315625 0.529089062167
410 1 -0.023034375 -0.00125 0.006496875 0.395964703922
411 1 -0.023034375 -0.00125 0.007678125 0.241806863156
412 1 -0.023034375 -0.00125 0.008859375 0.0443323240644
413 1 -0.023034375 -0.00125 0.010040625 0.00154812961495
414 1 -0.023034375 -0.00125 0.011221875 0.332326556717
415 1 -0.023034375 -0.00125 0.012403125 0.881360856069
416 1 -0.023034375 -0.00125 0.013584375 0.825792580894
417 1 -0.023034375 -0.00125 0.014765625 0.350163267536
418 1 -0.023034375 -0.00125 0.015946875 0.133535038668
419 1 -0.023034375 -0.00125 0.017128125 0.0999860491522
420 1 -0.023034375 -0.00125 0.018309375 0.252716464147
421 1 -0.023034375 -0.00125 0.019490625 0.609625751849
422 1 -0.023034375 -0.00125 0.020671875 0.649836732464
423 1 -0.023034375 -0.00125 0.021853125 0.430635345024
424 1 -0.023034375 -0.00125 0.023034375 0.361324541927
425 1 -0.023034375 -0.00125 0.024215625 0.224469737872
426 1 -0.023034375 -0.00125 0.025396875 0.643140896024
427 1 -0.023034375 -0.00125 0.026578125 0.196692628522
428 1 -0.023034375 -0.00125 0.027759375 0.0075399670332
429 1 -0.021853125 -0.00125 -0.028940625 0.00466864259094
430 1 -0.021853125 -0.00125 -0.027759375 0.0787502203907
431 1 -0.021853125 -0.00125 -0.026578125 0.00154813293271
432 1 -0.021853125 -0.00125 -0.025396875 0.00154813293271
433 1 -0.021853125 -0.00125 -0.024215625 4.52220221462e-06
434 1 -0.021853125 -0.00125 -0.023034375 0.0
435 1 -0.021853125 -0.00125 -0.021853125 0.0
436 1 -0.021853125 -0.00125 -0.020671875 0.0
437 1 -0.021853125 -0.00125 -0.019490625 0.111757268435
438 1 -0.021853125 -0.00125 -0.018309375 0.186171540908
439 1 -0.021853125 -0.00125 -0.017128125 0.0550579936718
440 1 -0.021853125 -0.00125 -0.015946875 0.105365860212
441 1 -0.021853125 -0.00125 -0.014765625 0.091233852548
442 1 -0.021853125 -0.00125 -0.013584375 0.131597898254
443 1 -0.021853125 -0.00125 -0.012403125 0.580549910179
444 1 -0.021853125 -0.00125 -0.011221875 0.59844434493
445 1 -0.021853125 -0.00125 -0.010040625 0.529089062167
446 1 -0.021853125 -0.00125 -0.008859375 0.263674497482
447 1 -0.021853125 -0.00125 -0.007678125 0.159358746116
448 1 -0.021853125 -0.00125 -0.006496875 0.323420907218
449 1 -0.021853125 -0.00125 -0.005315625 0.685474509568
450 1 -0.021853125 -0.00125 -0.004134375 0.769047847884
451 1 -0.021853125 -0.00125 -0.002953125 0.922159681911
452 1 -0.021853125 -0.00125 -0.001771875 0.729730317447
453 1 -0.021853125 -0.00125 -0.000590625 0.341241493571
454 1 -0.021853125 -0.00125 0.000590625 0.430635906715
455 1 -0.021853125 -0.00125 0.001771875 0.51118821003
456 1 -0.021853125 -0.00125 0.002953125 0.522376039939
457 1 -0.021853125 -0.00125 0.004134375 0.747283032551
458 1 -0.021853125 -0.00125 0.005315625 0.685474509568
459 1 -0.021853125 -0.00125 0.006496875 0.30120517217
460 1 -0.021853125 -0.00125 0.007678125 0.169569874305
461 1 -0.021853125 -0.00125 0.008859375 0.139391385346
462 1 -0.021853125 -0.00125 0.010040625 0.0698876802493
463 1 -0.021853125 -0.00125 0.011221875 0.441823107051
464 1 -0.021853125 -0.00125 0.012403125 0.982487321321
465 1 -0.021853125 -0.00125 0.013584375 0.741809776626
466 1 -0.021853125 -0.00125 0.014765625 0.343471904739
467 1 -0.021853125 -0.00125 0.015946875 0.252716464147
468 1 -0.021853125 -0.00125 0.017128125 0.263674497482
469 1 -0.021853125 -0.00125 0.018309375 0.649836732464
470 1 -0.021853125 -0.00125 0.019490625 0.958795800661
471 1 -0.021853125 -0.00125 0.020671875 0.994144398539
472 1 -0.021853125 -0.00125 0.021853125 0.85070571836
473 1 -0.021853125 -0.00125 0.023034375 0.540277181315
474 1 -0.021853125 -0.00125 0.024215625 0.678804021823
475 1 -0.021853125 -0.00125 0.025396875 0.60962547119
476 1 -0.021853125 -0.00125 0.026578125 0.456366589336
477 1 -0.021853125 -0.00125 0.027759375 0.676905811518
478 1 -0.021853125 -0.00125 0.028940625 0.446450460541
479 1 -0.020671875 -0.00125 -0.030121875 0.0
480 1 -0.020671875 -0.00125 -0.028940625 0.000245540111831
481 1 -0.020671875 -0.00125 -0.027759375 0.000126658700522
482 1 -0.020671875 -0.00125 -0.026578125 0.0
483 1 -0.020671875 -0.00125 -0.025396875 1.74019667629e-11
484 1 -0.020671875 -0.00125 -0.024215625 0.0
485 1 -0.020671875 -0.00125 -0.023034375 0.0
486 1 -0.020671875 -0.00125 -0.021853125 0.0
487 1 -0.020671875 -0.00125 -0.020671875 0.0
488 1 -0.020671875 -0.00125 -0.019490625 0.0243767560461
489 1 -0.020671875 -0.00125 -0.018309375 0.321195978177
490 1 -0.020671875 -0.00125 -0.017128125 0.139391385346
491 1 -0.020671875 -0.00125 -0.015946875 0.0698876802493
492 1 -0.020671875 -0.00125 -0.014765625 0.000891017573599
493 1 -0.020671875 -0.00125 -0.013584375 0.123928564454
494 1 -0.020671875 -0.00125 -0.012403125 0.343471904739
495 1 -0.020671875 -0.00125 -0.011221875 0.412738808647
496 1 -0.020671875 -0.00125 -0.010040625 0.522376039939
497 1 -0.020671875 -0.00125 -0.008859375 0.470910937833
498 1 -0.020671875 -0.00125 -0.007678125 0.332327069371
499 1 -0.020671875 -0.00125 -0.006496875 0.441823107051
500 1 -0.020671875 -0.00125 -0.005315625 0.580549910179
501 1 -0.020671875 -0.00125 -0.004134375 0.638675411355
502 1 -0.020671875 -0.00125 -0.002953125 0.747283490098
503 1 -0.020671875 -0.00125 -0.001771875 0.908766147452
504 1 -0.020671875 -0.00125 -0.000590625 0.805419757697
505 1 -0.020671875 -0.00125 0.000590625 0.930112352311
506 1 -0.020671875 -0.00125 0.001771875 0.955667729205
507 1 -0.020671875 -0.00125 0.002953125 0.870331469564
508 1 -0.020671875 -0.00125 0.004134375 0.99331812968
509 1 -0.020671875 -0.00125 0.005315625 0.961812759792
510 1 -0.020671875 -0.00125 0.006496875 0.580549910179
511 1 -0.020671875 -0.00125 0.007678125 0.186171540908
512 1 -0.020671875 -0.00125 0.008859375 0.263675002831
513 1 -0.020671875 -0.00125 0.010040625 0.263674497482
514 1 -0.020671875 -0.00125 0.011221875 0.701012014606
515 1 -0.020671875 -0.00125 0.012403125 0.844685477184
516 1 -0.020671875 -0.00125 0.013584375 0.456367385148
517 1 -0.020671875 -0.00125 0.014765625 0.186171540908
518 1 -0.020671875 -0.00125 0.015946875 0.51118821003
519 1 -0.020671875 -0.00125 0.017128125 0.796948028842
520 1 -0.020671875 -0.00125 0.018309375 0.87607171394
521 1 -0.020671875 -0.00125 0.019490625 0.656528375198
522 1 -0.020671875 -0.00125 0.020671875 0.441823153862
523 1 -0.020671875 -0.00125 0.021853125 0.292343226566
524 1 -0.020671875 -0.00125 0.023034375 0.252716464147
525 1 -0.020671875 -0.00125 0.024215625 0.441823153862
526 1 -0.020671875 -0.00125 0.025396875 0.620802845142
527 1 -0.020671875 -0.00125 0.026578125 0.502237585867
528 1 -0.020671875 -0.00125 0.027759375 0.343471904739
529 1 -0.020671875 -0.00125 0.028940625 0.0394161020542
530 1 -0.020671875 -0.00125 0.030121875 0.0225621152214
531 1 -0.019490625 -0.00125 -0.031303125 0.0
532 1 -0.019490625 -0.00125 -0.030121875 0.0
533 1 -0.019490625 -0.00125 -0.028940625 0.000126658700522
534 1 -0.019490625 -0.00125 -0.027759375 0.000126658700522
535 1 -0.019490625 -0.00125 -0.026578125 0.0
536 1 -0.019490625 -0.00125 -0.025396875 0.0
537 1 -0.019490625 -0.00125 -0.024215625 0.0
538 1 -0.019490625 -0.00125 -0.023034375 0.0
539 1 -0.019490625 -0.00125 -0.021853125 0.0
540 1 -0.019490625 -0.00125 -0.020671875 0.000375784453599
541 1 -0.019490625 -0.00125 -0.019490625 0.17162733092