ITEM: TIMESTEP
0
ITEM: NUMBER OF ATOMS
3080
ITEM: BOX BOUNDS ss ss ss
-3.7007399999999996e-02 3.7007399999999996e-02
-2.0002499999999999e-03 2.5000000000000004e-07
-3.7007399999999996e-02 3.7007399999999996e-02
ITEM: ATOMS id type x y z c_1
0 1 -0.037209375 -0.00125 -0.000590625 1.0
1 1 -0.036028125 -0.00125 -0.007678125 0.00920066229086
2 1 -0.036028125 -0.00125 -0.006496875 0.0
3 1 -0.036028125 -0.00125 -0.005315625 0.0
4 1 -0.036028125 -0.00125 -0.004134375 0.0
5 1 -0.036028125 -0.00125 -0.002953125 0.0
6 1 -0.036028125 -0.00125 -0.001771875 0.0
7 1 -0.036028125 -0.00125 -0.000590625 0.0
8 1 -0.036028125 -0.00125 0.000590625 0.0
9 1 -0.036028125 -0.00125 0.001771875 0.0
10 1 -0.036028125 -0.00125 0.002953125 0.0
11 1 -0.036028125 -0.00125 0.004134375 0.0
12 1 -0.036028125 -0.00125 0.005315625 0.0
13 1 -0.036028125 -0.00125 0.006496875 0.0
14 1 -0.036028125 -0.00125 0.007678125 0.0
15 1 -0.034846875 -0.00125 -0.011221875 0.00920066229086
16 1 -0.034846875 -0.00125 -0.010040625 0.0
17 1 -0.034846875 -0.00125 -0.008859375 0.00106278235535
18 1 -0.034846875 -0.00125 -0.007678125 0.000245540111831
19 1 -0.034846875 -0.00125 -0.006496875 0.0
20 1 -0.034846875 -0.00125 -0.005315625 0.0
21 1 -0.034846875 -0.00125 -0.004134375 0.0
22 1 -0.034846875 -0.00125 -0.002953125 0.0
23 1 -0.034846875 -0.00125 -0.001771875 0.0
24 1 -0.034846875 -0.00125 -0.000590625 0.0
25 1 -0.034846875 -0.00125 0.000590625 0.0
26 1 -0.034846875 -0.00125 0.001771875 0.0
27 1 -0.034846875 -0.00125 0.002953125 0.0
28 1 -0.034846875 -0.00125 0.004134375 0.0
29 1 -0.034846875 -0.00125 0.005315625 0.0
30 1 -0.034846875 -0.00125 0.006496875 0.0
31 1 -0.034846875 -0.00125 0.007678125 0.0
32 1 -0.034846875 -0.00125 0.008859375 0.0
33 1 -0.034846875 -0.00125 0.010040625 0.0
34 1 -0.034846875 -0.00125 0.011221875 0.0
35 1 -0.033665625 -0.00125 -0.013584375 0.0
36 1 -0.033665625 -0.00125 -0.012403125 0.217950860068
37 1 -0.033665625 -0.00125 -0.011221875 0.112788508618
38 1 -0.033665625 -0.00125 -0.010040625 0.0
39 1 -0.033665625 -0.00125 -0.008859375 0.00154813293271
40 1 -0.033665625 -0.00125 -0.007678125 0.00154813293271
41 1 -0.033665625 -0.00125 -0.006496875 0.0
42 1 -0.033665625 -0.00125 -0.005315625 0.0
43 1 -0.033665625 -0.00125 -0.004134375 0.0
44 1 -0.033665625 -0.00125 -0.002953125 0.0
45 1 -0.033665625 -0.00125 -0.001771875 0.0
46 1 -0.033665625 -0.00125 -0.000590625 0.0
47 1 -0.033665625 -0.00125 0.000590625 0.0
48 1 -0.033665625 -0.00125 0.001771875 0.0
49 1 -0.033665625 -0.00125 0.002953125 0.0
50 1 -0.033665625 -0.00125 0.004134375 0.0
51 1 -0.033665625 -0.00125 0.005315625 0.0
52 1 -0.033665625 -0.00125 0.006496875 0.0
53 1 -0.033665625 -0.00125 0.007678125 0.0
54 1 -0.033665625 -0.00125 0.008859375 0.0
55 1 -0.033665625 -0.00125 0.010040625 0.0
56 1 -0.033665625 -0.00125 0.011221875 0.0
57 1 -0.033665625 -0.00125 0.012403125 0.0
58 1 -0.033665625 -0.00125 0.013584375 0.0
59 1 -0.032484375 -0.00125 -0.018309375 0.0
60 1 -0.032484375 -0.00125 -0.017128125 0.0075399670332
61 1 -0.032484375 -0.00125 -0.015946875 0.0471197081025
62 1 -0.032484375 -0.00125 -0.014765625 0.0250919557526
63 1 -0.032484375 -0.00125 -0.013584375 0.0
64 1 -0.032484375 -0.00125 -0.012403125 0.0335972902817
65 1 -0.032484375 -0.00125 -0.011221875 0.131597898254
66 1 -0.032484375 -0.00125 -0.010040625 0.00228022595935
67 1 -0.032484375 -0.00125 -0.008859375 1.5838087899e-05
68 1 -0.032484375 -0.00125 -0.007678125 3.14925560351e-13
69 1 -0.032484375 -0.00125 -0.006496875 0.0
70 1 -0.032484375 -0.00125 -0.005315625 0.0
71 1 -0.032484375 -0.00125 -0.004134375 0.0
72 1 -0.032484375 -0.00125 -0.002953125 0.0
73 1 -0.032484375 -0.00125 -0.001771875 0.0
74 1 -0.032484375 -0.00125 -0.000590625 0.0
75 1 -0.032484375 -0.00125 0.000590625 0.0
76 1 -0.032484375 -0.00125 0.001771875 0.0
77 1 -0.032484375 -0.00125 0.002953125 0.0
78 1 -0.032484375 -0.00125 0.004134375 0.0
79 1 -0.032484375 -0.00125 0.005315625 0.0
80 1 -0.032484375 -0.00125 0.006496875 0.0
81 1 -0.032484375 -0.00125 0.007678125 0.0
82 1 -0.032484375 -0.00125 0.008859375 0.0
83 1 -0.032484375 -0.00125 0.010040625 0.0
84 1 -0.032484375 -0.00125 0.011221875 0.0
85 1 -0.032484375 -0.00125 0.012403125 0.0
86 1 -0.032484375 -0.00125 0.013584375 0.0
87 1 -0.032484375 -0.00125 0.014765625 0.0
88 1 -0.032484375 -0.00125 0.015946875 0.0
89 1 -0.032484375 -0.00125 0.017128125 0.0
90 1 -0.032484375 -0.00125 0.018309375 0.0
91 1 -0.031303125 -0.00125 -0.019490625 0.0
92 1 -0.031303125 -0.00125 -0.018309375 1.18026294841e-10
93 1 -0.031303125 -0.00125 -0.017128125 0.0
94 1 -0.031303125 -0.00125 -0.015946875 0.00154813293271
95 1 -0.031303125 -0.00125 -0.014765625 0.0
96 1 -0.031303125 -0.00125 -0.013584375 0.0
97 1 -0.031303125 -0.00125 -0.012403125 0.00154813293271
98 1 -0.031303125 -0.00125 -0.011221875 0.00474645121499
99 1 -0.031303125 -0.00125 -0.010040625 1.22156214432e-15
100 1 -0.031303125 -0.00125 -0.008859375 0.0
101 1 -0.031303125 -0.00125 -0.007678125 0.0
102 1 -0.031303125 -0.00125 -0.006496875 0.0
103 1 -0.031303125 -0.00125 -0.005315625 0.0
104 1 -0.031303125 -0.00125 -0.004134375 0.0
105 1 -0.031303125 -0.00125 -0.002953125 0.0
106 1 -0.031303125 -0.00125 -0.001771875 0.0
107 1 -0.031303125 -0.00125 -0.000590625 0.0
108 1 -0.031303125 -0.00125 0.000590625 0.0
109 1 -0.031303125 -0.00125 0.001771875 0.0
110 1 -0.031303125 -0.00125 0.002953125 0.0
111 1 -0.031303125 -0.00125 0.004134375 0.0
112 1 -0.031303125 -0.00125 0.005315625 0.0
113 1 -0.031303125 -0.00125 0.006496875 0.0
114 1 -0.031303125 -0.00125 0.007678125 0.0
115 1 -0.031303125 -0.00125 0.008859375 0.0
116 1 -0.031303125 -0.00125 0.010040625 0.0
117 1 -0.031303125 -0.00125 0.011221875 0.0
118 1 -0.031303125 -0.00125 0.012403125 0.0
119 1 -0.031303125 -0.00125 0.013584375 1.28754471296e-08
120 1 -0.031303125 -0.00125 0.014765625 0.0
121 1 -0.031303125 -0.00125 0.015946875 0.0
122 1 -0.031303125 -0.00125 0.017128125 0.0
123 1 -0.031303125 -0.00125 0.018309375 0.0
124 1 -0.031303125 -0.00125 0.019490625 0.0
125 1 -0.030121875 -0.00125 -0.020671875 0.00466864259094
126 1 -0.030121875 -0.00125 -0.019490625 0.0
127 1 -0.030121875 -0.00125 -0.018309375 0.0
128 1 -0.030121875 -0.00125 -0.017128125 1.74019667629e-11
129 1 -0.030121875 -0.00125 -0.015946875 0.0
130 1 -0.030121875 -0.00125 -0.014765625 0.0
131 1 -0.030121875 -0.00125 -0.013584375 0.0
132 1 -0.030121875 -0.00125 -0.012403125 1.74019667629e-11
133 1 -0.030121875 -0.00125 -0.011221875 0.0
134 1 -0.030121875 -0.00125 -0.010040625 0.0
135 1 -0.030121875 -0.00125 -0.008859375 0.0
136 1 -0.030121875 -0.00125 -0.007678125 0.0
137 1 -0.030121875 -0.00125 -0.006496875 0.0
138 1 -0.030121875 -0.00125 -0.005315625 0.0
139 1 -0.030121875 -0.00125 -0.004134375 0.0
140 1 -0.030121875 -0.00125 -0.002953125 0.0
141 1 -0.030121875 -0.00125 -0.001771875 0.0
142 1 -0.030121875 -0.00125 -0.000590625 0.0
143 1 -0.030121875 -0.00125 0.000590625 0.0
144 1 -0.030121875 -0.00125 0.001771875 0.0
145 1 -0.030121875 -0.00125 0.002953125 0.0
146 1 -0.030121875 -0.00125 0.004134375 0.0
147 1 -0.030121875 -0.00125 0.005315625 0.0
148 1 -0.030121875 -0.00125 0.006496875 0.0
149 1 -0.030121875 -0.00125 0.007678125 0.0
150 1 -0.030121875 -0.00125 0.008859375 0.0
151 1 -0.030121875 -0.00125 0.010040625 0.0
152 1 -0.030121875 -0.00125 0.011221875 0.0
153 1 -0.030121875 -0.00125 0.012403125 0.0
154 1 -0.030121875 -0.00125 0.013584375 1.28754471296e-08
155 1 -0.030121875 -0.00125 0.014765625 0.000126658700522
156 1 -0.030121875 -0.00125 0.015946875 0.0
157 1 -0.030121875 -0.00125 0.017128125 0.0
158 1 -0.030121875 -0.00125 0.018309375 0.0
159 1 -0.030121875 -0.00125 0.019490625 0.0
160 1 -0.030121875 -0.00125 0.020671875 0.0
161 1 -0.028940625 -0.00125 -0.021853125 0.0904523633156
162 1 -0.028940625 -0.00125 -0.020671875 0.000245540111831
163 1 -0.028940625 -0.00125 -0.019490625 3.14925560351e-13
164 1 -0.028940625 -0.00125 -0.018309375 0.0
165 1 -0.028940625 -0.00125 -0.017128125 0.0
166 1 -0.028940625 -0.00125 -0.015946875 0.0
167 1 -0.028940625 -0.00125 -0.014765625 0.0
168 1 -0.028940625 -0.00125 -0.013584375 0.0
169 1 -0.028940625 -0.00125 -0.012403125 0.0
170 1 -0.028940625 -0.00125 -0.011221875 0.0
171 1 -0.028940625 -0.00125 -0.010040625 0.0
172 1 -0.028940625 -0.00125 -0.008859375 0.0
173 1 -0.028940625 -0.00125 -0.007678125 0.0
174 1 -0.028940625 -0.00125 -0.006496875 0.0
175 1 -0.028940625 -0.00125 -0.005315625 0.0
176 1 -0.028940625 -0.00125 -0.004134375 0.0
177 1 -0.028940625 -0.00125 -0.002953125 0.0
178 1 -0.028940625 -0.00125 -0.001771875 0.0
179 1 -0.028940625 -0.00125 -0.000590625 0.0
180 1 -0.028940625 -0.00125 0.000590625 0.0
181 1 -0.028940625 -0.00125 0.001771875 0.0
182 1 -0.028940625 -0.00125 0.002953125 0.0
183 1 -0.028940625 -0.00125 0.004134375 0.0
184 1 -0.028940625 -0.00125 0.005315625 0.0
185 1 -0.028940625 -0.00125 0.006496875 0.0
186 1 -0.028940625 -0.00125 0.007678125 0.0
187 1 -0.028940625 -0.00125 0.008859375 0.0
188 1 -0.028940625 -0.00125 0.010040625 0.0
189 1 -0.028940625 -0.00125 0.011221875 0.0
190 1 -0.028940625 -0.00125 0.012403125 0.0
191 1 -0.028940625 -0.00125 0.013584375 1.28754471296e-08
192 1 -0.028940625 -0.00125 0.014765625 0.00154813293271
193 1 -0.028940625 -0.00125 0.015946875 0.0
194 1 -0.028940625 -0.00125 0.017128125 0.0
195 1 -0.028940625 -0.00125 0.018309375 0.0
196 1 -0.028940625 -0.00125 0.019490625 0.0
197 1 -0.028940625 -0.00125 0.020671875 0.0
198 1 -0.028940625 -0.00125 0.021853125 0.0
199 1 -0.027759375 -0.00125 -0.024215625 0.0
200 1 -0.027759375 -0.00125 -0.023034375 0.00106278235535
201 1 -0.027759375 -0.00125 -0.021853125 0.150411393909
202 1 -0.027759375 -0.00125 -0.020671875 0.14929428164
203 1 -0.027759375 -0.00125 -0.019490625 1.28754471296e-08
204 1 -0.027759375 -0.00125 -0.018309375 0.0
205 1 -0.027759375 -0.00125 -0.017128125 0.0
206 1 -0.027759375 -0.00125 -0.015946875 0.0
207 1 -0.027759375 -0.00125 -0.014765625 0.0
208 1 -0.027759375 -0.00125 -0.013584375 0.0
209 1 -0.027759375 -0.00125 -0.012403125 0.0
210 1 -0.027759375 -0.00125 -0.011221875 0.0
211 1 -0.027759375 -0.00125 -0.010040625 0.0
212 1 -0.027759375 -0.00125 -0.008859375 0.0
213 1 -0.027759375 -0.00125 -0.007678125 0.0
214 1 -0.027759375 -0.00125 -0.006496875 0.0
215 1 -0.027759375 -0.00125 -0.005315625 0.0
216 1 -0.027759375 -0.00125 -0.004134375 0.0
217 1 -0.027759375 -0.00125 -0.002953125 0.0
218 1 -0.027759375 -0.00125 -0.001771875 0.0
219 1 -0.027759375 -0.00125 -0.000590625 0.0
220 1 -0.027759375 -0.00125 0.000590625 0.0
221 1 -0.027759375 -0.00125 0.001771875 0.0
222 1 -0.027759375 -0.00125 0.002953125 0.0
223 1 -0.027759375 -0.00125 0.004134375 0.0
224 1 -0.027759375 -0.00125 0.005315625 0.0
225 1 -0.027759375 -0.00125 0.006496875 0.0
226 1 -0.027759375 -0.00125 0.007678125 0.0
227 1 -0.027759375 -0.00125 0.008859375 0.0
228 1 -0.027759375 -0.00125 0.010040625 0.0
229 1 -0.027759375 -0.00125 0.011221875 0.0
230 1 -0.027759375 -0.00125 0.012403125 0.0
231 1 -0.027759375 -0.00125 0.013584375 0.00474644221021
232 1 -0.027759375 -0.00125 0.014765625 0.224469737872
233 1 -0.027759375 -0.00125 0.015946875 0.0
234 1 -0.027759375 -0.00125 0.017128125 0.0
235 1 -0.027759375 -0.00125 0.018309375 0.0
236 1 -0.027759375 -0.00125 0.019490625 0.0
237 1 -0.027759375 -0.00125 0.020671875 0.0
238 1 -0.027759375 -0.00125 0.021853125 0.0
239 1 -0.027759375 -0.00125 0.023034375 0.0
240 1 -0.027759375 -0.00125 0.024215625 0.0
241 1 -0.026578125 -0.00125 -0.026578125 0.0
242 1 -0.026578125 -0.00125 -0.025396875 0.0
243 1 -0.026578125 -0.00125 -0.024215625 0.0
244 1 -0.026578125 -0.00125 -0.023034375 1.74014005978e-11
245 1 -0.026578125 -0.00125 -0.021853125 0.0955753735432
246 1 -0.026578125 -0.00125 -0.020671875 0.238544232212
247 1 -0.026578125 -0.00125 -0.019490625 0.000696618373173
248 1 -0.026578125 -0.00125 -0.018309375 0.0
249 1 -0.026578125 -0.00125 -0.017128125 0.0
250 1 -0.026578125 -0.00125 -0.015946875 0.0
251 1 -0.026578125 -0.00125 -0.014765625 0.0
252 1 -0.026578125 -0.00125 -0.013584375 0.0
253 1 -0.026578125 -0.00125 -0.012403125 0.0
254 1 -0.026578125 -0.00125 -0.011221875 0.0
255 1 -0.026578125 -0.00125 -0.010040625 2.79378975481e-22
256 1 -0.026578125 -0.00125 -0.008859375 6.0154364058e-07
257 1 -0.026578125 -0.00125 -0.007678125 0.00118683217225
258 1 -0.026578125 -0.00125 -0.006496875 0.00595498903367
259 1 -0.026578125 -0.00125 -0.005315625 0.0698877616496
260 1 -0.026578125 -0.00125 -0.004134375 0.0207856943371
261 1 -0.026578125 -0.00125 -0.002953125 0.0122342600864
262 1 -0.026578125 -0.00125 -0.001771875 0.0122342600864
263 1 -0.026578125 -0.00125 -0.000590625 0.0272765590274
264 1 -0.026578125 -0.00125 0.000590625 0.017401631301
265 1 -0.026578125 -0.00125 0.001771875 0.000535657991014
266 1 -0.026578125 -0.00125 0.002953125 2.79378975481e-22
267 1 -0.026578125 -0.00125 0.004134375 0.0
268 1 -0.026578125 -0.00125 0.005315625 0.0
269 1 -0.026578125 -0.00125 0.006496875 0.0
270 1 -0.026578125 -0.00125 0.007678125 2.79378975481e-22
271 1 -0.026578125 -0.00125 0.008859375 0.0
272 1 -0.026578125 -0.00125 0.010040625 0.0
273 1 -0.026578125 -0.00125 0.011221875 0.0
274 1 -0.026578125 -0.00125 0.012403125 0.0
275 1 -0.026578125 -0.00125 0.013584375 0.0187026608024
276 1 -0.026578125 -0.00125 0.014765625 0.199867928267
277 1 -0.026578125 -0.00125 0.015946875 0.0
278 1 -0.026578125 -0.00125 0.017128125 0.0
279 1 -0.026578125 -0.00125 0.018309375 0.0
280 1 -0.026578125 -0.00125 0.019490625 0.0
281 1 -0.026578125 -0.00125 0.020671875 0.0
282 1 -0.026578125 -0.00125 0.021853125 0.0
283 1 -0.026578125 -0.00125 0.023034375 0.0
284 1 -0.026578125 -0.00125 0.024215625 0.0
285 1 -0.026578125 -0.00125 0.025396875 0.0
286 1 -0.026578125 -0.00125 0.026578125 0.0
287 1 -0.025396875 -0.00125 -0.026578125 0.0
288 1 -0.025396875 -0.00125 -0.025396875 0.0
289 1 -0.025396875 -0.00125 -0.024215625 0.0
290 1 -0.025396875 -0.00125 -0.023034375 0.0293069007767
291 1 -0.025396875 -0.00125 -0.021853125 0.281290170023
292 1 -0.025396875 -0.00125 -0.020671875 0.159358746116
293 1 -0.025396875 -0.00125 -0.019490625 1.77729209249e-06
294 1 -0.025396875 -0.00125 -0.018309375 0.0
295 1 -0.025396875 -0.00125 -0.017128125 0.0
296 1 -0.025396875 -0.00125 -0.015946875 0.0
297 1 -0.025396875 -0.00125 -0.014765625 0.0
298 1 -0.025396875 -0.00125 -0.013584375 2.79378975481e-22
299 1 -0.025396875 -0.00125 -0.012403125 1.22156214432e-15
300 1 -0.025396875 -0.00125 -0.011221875 0.00322594350264
301 1 -0.025396875 -0.00125 -0.010040625 0.0746186412079
302 1 -0.025396875 -0.00125 -0.008859375 0.149294783073
303 1 -0.025396875 -0.00125 -0.007678125 0.0550579642476
304 1 -0.025396875 -0.00125 -0.006496875 0.131597898254
305 1 -0.025396875 -0.00125 -0.005315625 0.186171540908
306 1 -0.025396875 -0.00125 -0.004134375 0.263674497482
307 1 -0.025396875 -0.00125 -0.002953125 0.224469737872
308 1 -0.025396875 -0.00125 -0.001771875 0.235286796702
309 1 -0.025396875 -0.00125 -0.000590625 0.205179062488
310 1 -0.025396875 -0.00125 0.000590625 0.186171540908
311 1 -0.025396875 -0.00125 0.001771875 0.0622852805866
312 1 -0.025396875 -0.00125 0.002953125 1.22156214432e-15
313 1 -0.025396875 -0.00125 0.004134375 0.0
314 1 -0.025396875 -0.00125 0.005315625 0.0
315 1 -0.025396875 -0.00125 0.006496875 1.74014005978e-11
316 1 -0.025396875 -0.00125 0.007678125 1.74019667629e-11
317 1 -0.025396875 -0.00125 0.008859375 1.74019667629e-11
318 1 -0.025396875 -0.00125 0.010040625 0.0
319 1 -0.025396875 -0.00125 0.011221875 0.0
320 1 -0.025396875 -0.00125 0.012403125 0.0
321 1 -0.025396875 -0.00125 0.013584375 0.0187026608024
322 1 -0.025396875 -0.00125 0.014765625 0.292342717184
323 1 -0.025396875 -0.00125 0.015946875 1.22156214432e-15
324 1 -0.025396875 -0.00125 0.017128125 0.000126658700522
325 1 -0.025396875 -0.00125 0.018309375 4.52227625942e-06
326 1 -0.025396875 -0.00125 0.019490625 0.0
327 1 -0.025396875 -0.00125 0.020671875 0.0
328 1 -0.025396875 -0.00125 0.021853125 0.0
329 1 -0.025396875 -0.00125 0.023034375 0.0
330 1 -0.025396875 -0.00125 0.024215625 0.0
331 1 -0.025396875 -0.00125 0.025396875 0.0
332 1 -0.025396875 -0.00125 0.026578125 0.0
333 1 -0.024215625 -0.00125 -0.027759375 0.0
334 1 -0.024215625 -0.00125 -0.026578125 0.0
335 1 -0.024215625 -0.00125 -0.025396875 0.0
336 1 -0.024215625 -0.00125 -0.024215625 1.74019667629e-11
337 1 -0.024215625 -0.00125 -0.023034375 0.0443323240644
338 1 -0.024215625 -0.00125 -0.021853125 0.252716464147
339 1 -0.024215625 -0.00125 -0.020671875 0.0778403180889
340 1 -0.024215625 -0.00125 -0.019490625 7.02309649834e-08
341 1 -0.024215625 -0.00125 -0.018309375 0.0
342 1 -0.024215625 -0.00125 -0.017128125 0.0
343 1 -0.024215625 -0.00125 -0.015946875 1.74019667629e-11
344 1 -0.024215625 -0.00125 -0.014765625 0.0
345 1 -0.024215625 -0.00125 -0.013584375 2.79378975481e-22
346 1 -0.024215625 -0.00125 -0.012403125 4.52220221462e-06
347 1 -0.024215625 -0.00125 -0.011221875 0.0381872649833
348 1 -0.024215625 -0.00125 -0.010040625 0.0381872649833
349 1 -0.024215625 -0.00125 -0.008859375 0.0107214510125
350 1 -0.024215625 -0.00125 -0.007678125 1.22156214432e-15
351 1 -0.024215625 -0.00125 -0.006496875 1.74014005978e-11
352 1 -0.024215625 -0.00125 -0.005315625 0.00154813293271
353 1 -0.024215625 -0.00125 -0.004134375 0.000126658700522
354 1 -0.024215625 -0.00125 -0.002953125 0.000299131636816
355 1 -0.024215625 -0.00125 -0.001771875 4.52220221462e-06
356 1 -0.024215625 -0.00125 -0.000590625 7.02309649834e-08
357 1 -0.024215625 -0.00125 0.000590625 6.01557630165e-07
358 1 -0.024215625 -0.00125 0.001771875 0.0698876802493
359 1 -0.024215625 -0.00125 0.002953125 0.0243767756543
360 1 -0.024215625 -0.00125 0.004134375 0.000299131636816
361 1 -0.024215625 -0.00125 0.005315625 1.74019667629e-11
362 1 -0.024215625 -0.00125 0.006496875 1.74014005978e-11
363 1 -0.024215625 -0.00125 0.007678125 4.52220221462e-06
364 1 -0.024215625 -0.00125 0.008859375 1.74019667629e-11
365 1 -0.024215625 -0.00125 0.010040625 0.0
366 1 -0.024215625 -0.00125 0.011221875 0.0
367 1 -0.024215625 -0.00125 0.012403125 1.74019667629e-11
368 1 -0.024215625 -0.00125 0.013584375 0.0364315046602
369 1 -0.024215625 -0.00125 0.014765625 0.292342717184
370 1 -0.024215625 -0.00125 0.015946875 0.000126658700522
371 1 -0.024215625 -0.00125 0.017128125 0.000126658700522
372 1 -0.024215625 -0.00125 0.018309375 0.00668182974929
373 1 -0.024215625 -0.00125 0.019490625 1.74019667629e-11
374 1 -0.024215625 -0.00125 0.020671875 0.0
375 1 -0.024215625 -0.00125 0.021853125 0.0
376 1 -0.024215625 -0.00125 0.023034375 0.0
377 1 -0.024215625 -0.00125 0.024215625 0.0
378 1 -0.024215625 -0.00125 0.025396875 0.0
379 1 -0.024215625 -0.00125 0.026578125 0.0
380 1 -0.024215625 -0.00125 0.027759375 0.0
381 1 -0.023034375 -0.00125 -0.027759375 0.00106278235535
382 1 -0.023034375 -0.00125 -0.026578125 1.77731074088e-06
383 1 -0.023034375 -0.00125 -0.025396875 4.52227625942e-06
384 1 -0.023034375 -0.00125 -0.024215625 0.00154813293271
385 1 -0.023034375 -0.00125 -0.023034375 0.0293069224194
386 1 -0.023034375 -0.00125 -0.021853125 0.350163267536
387 1 -0.023034375 -0.00125 -0.020671875 0.091233852548
388 1 -0.023034375 -0.00125 -0.019490625 7.02309649834e-08
389 1 -0.023034375 -0.00125 -0.018309375 0.0
390 1 -0.023034375 -0.00125 -0.017128125 0.0
391 1 -0.023034375 -0.00125 -0.015946875 1.74019667629e-11
392 1 -0.023034375 -0.00125 -0.014765625 1.74019667629e-11
393 1 -0.023034375 -0.00125 -0.013584375 0.0
394 1 -0.023034375 -0.00125 -0.012403125 1.74019667629e-11
395 1 -0.023034375 -0.00125 -0.011221875 0.000126657572948
396 1 -0.023034375 -0.00125 -0.010040625 1.74019667629e-11
397 1 -0.023034375 -0.00125 -0.008859375 0.0
398 1 -0.023034375 -0.00125 -0.007678125 1.74019667629e-11
399 1 -0.023034375 -0.00125 -0.006496875 1.74019667629e-11
400 1 -0.023034375 -0.00125 -0.005315625 0.0
401 1 -0.023034375 -0.00125 -0.004134375 0.0
402 1 -0.023034375 -0.00125 -0.002953125 0.0
403 1 -0.023034375 -0.00125 -0.001771875 1.74019667629e-11
404 1 -0.023034375 -0.00125 -0.000590625 2.79378975481e-22
405 1 -0.023034375 -0.00125 0.000590625 1.74019667629e-11
406 1 -0.023034375 -0.00125 0.001771875 0.000891017573599
407 1 -0.023034375 -0.00125 0.002953125 0.01386971523
408 1 -0.023034375 -0.00125 0.004134375 0.00154812961495
409 1 -0.023034375 -0.00125 0.005315625 0.0
410 1 -0.023034375 -0.00125 0.006496875 2.79378975481e-22
411 1 -0.023034375 -0.00125 0.007678125 4.52220221462e-06
412 1 -0.023034375 -0.00125 0.008859375 1.74019667629e-11
413 1 -0.023034375 -0.00125 0.010040625 1.74019667629e-11
414 1 -0.023034375 -0.00125 0.011221875 0.0
415 1 -0.023034375 -0.00125 0.012403125 1.74019667629e-11
416 1 -0.023034375 -0.00125 0.013584375 0.0475687660223
417 1 -0.023034375 -0.00125 0.014765625 0.186171540908
418 1 -0.023034375 -0.00125 0.015946875 0.000126658700522
419 1 -0.023034375 -0.00125 0.017128125 1.74019667629e-11
420 1 -0.023034375 -0.00125 0.018309375 0.000126658700522
421 1 -0.023034375 -0.00125 0.019490625 1.74019667629e-11
422 1 -0.023034375 -0.00125 0.020671875 0.0
423 1 -0.023034375 -0.00125 0.021853125 0.0
424 1 -0.023034375 -0.00125 0.023034375 0.0
425 1 -0.023034375 -0.00125 0.024215625 0.0
426 1 -0.023034375 -0.00125 0.025396875 0.0
427 1 -0.023034375 -0.00125 0.026578125 0.0
428 1 -0.023034375 -0.00125 0.027759375 0.0
429 1 -0.021853125 -0.00125 -0.028940625 0.00466864259094
430 1 -0.021853125 -0.00125 -0.027759375 0.000245540111831
431 1 -0.021853125 -0.00125 -0.026578125 0.00154813293271
432 1 -0.021853125 -0.00125 -0.025396875 0.000126658700522
433 1 -0.021853125 -0.00125 -0.024215625 0.00154813293271
434 1 -0.021853125 -0.00125 -0.023034375 6.01557630165e-07
435 1 -0.021853125 -0.00125 -0.021853125 0.361324541927
436 1 -0.021853125 -0.00125 -0.020671875 0.263674497482
437 1 -0.021853125 -0.00125 -0.019490625 7.46390321868e-06
438 1 -0.021853125 -0.00125 -0.018309375 0.0
439 1 -0.021853125 -0.00125 -0.017128125 0.0
440 1 -0.021853125 -0.00125 -0.015946875 0.0
441 1 -0.021853125 -0.00125 -0.014765625 1.74019667629e-11
442 1 -0.021853125 -0.00125 -0.013584375 0.0
443 1 -0.021853125 -0.00125 -0.012403125 0.0
444 1 -0.021853125 -0.00125 -0.011221875 0.0
445 1 -0.021853125 -0.00125 -0.010040625 0.0
446 1 -0.021853125 -0.00125 -0.008859375 0.0
447 1 -0.021853125 -0.00125 -0.007678125 4.42606186288e-05
448 1 -0.021853125 -0.00125 -0.006496875 0.00179933505981
449 1 -0.021853125 -0.00125 -0.005315625 0.000299131636816
450 1 -0.021853125 -0.00125 -0.004134375 4.52220221462e-06
451 1 -0.021853125 -0.00125 -0.002953125 1.74019667629e-11
452 1 -0.021853125 -0.00125 -0.001771875 0.0
453 1 -0.021853125 -0.00125 -0.000590625 0.0
454 1 -0.021853125 -0.00125 0.000590625 0.0
455 1 -0.021853125 -0.00125 0.001771875 0.0
456 1 -0.021853125 -0.00125 0.002953125 0.0
457 1 -0.021853125 -0.00125 0.004134375 0.0
458 1 -0.021853125 -0.00125 0.005315625 0.0
459 1 -0.021853125 -0.00125 0.006496875 2.79378975481e-22
460 1 -0.021853125 -0.00125 0.007678125 1.74019667629e-11
461 1 -0.021853125 -0.00125 0.008859375 0.000299131636816
462 1 -0.021853125 -0.00125 0.010040625 1.74019667629e-11
463 1 -0.021853125 -0.00125 0.011221875 1.74019667629e-11
464 1 -0.021853125 -0.00125 0.012403125 4.52227625942e-06
465 1 -0.021853125 -0.00125 0.013584375 0.0802910276307
466 1 -0.021853125 -0.00125 0.014765625 0.159358746116
467 1 -0.021853125 -0.00125 0.015946875 1.74019667629e-11
468 1 -0.021853125 -0.00125 0.017128125 0.000126658700522
469 1 -0.021853125 -0.00125 0.018309375 0.000126657572948
470 1 -0.021853125 -0.00125 0.019490625 3.14925560351e-13
471 1 -0.021853125 -0.00125 0.020671875 0.000126658700522
472 1 -0.021853125 -0.00125 0.021853125 0.0
473 1 -0.021853125 -0.00125 0.023034375 0.0
474 1 -0.021853125 -0.00125 0.024215625 0.0
475 1 -0.021853125 -0.00125 0.025396875 0.0
476 1 -0.021853125 -0.00125 0.026578125 0.0
477 1 -0.021853125 -0.00125 0.027759375 0.0
478 1 -0.021853125 -0.00125 0.028940625 0.0
479 1 -0.020671875 -0.00125 -0.030121875 0.0
480 1 -0.020671875 -0.00125 -0.028940625 0.000245540111831
481 1 -0.020671875 -0.00125 -0.027759375 6.01557630165e-07
482 1 -0.020671875 -0.00125 -0.026578125 0.00118682874801
483 1 -0.020671875 -0.00125 -0.025396875 0.00474645121499
484 1 -0.020671875 -0.00125 -0.024215625 0.000126658700522
485 1 -0.020671875 -0.00125 -0.023034375 1.22156214432e-15
486 1 -0.020671875 -0.00125 -0.021853125 0.123928325831
487 1 -0.020671875 -0.00125 -0.020671875 0.5
488 1 -0.020671875 -0.00125 -0.019490625 0.00228020850123
489 1 -0.020671875 -0.00125 -0.018309375 0.0
490 1 -0.020671875 -0.00125 -0.017128125 0.0
491 1 -0.020671875 -0.00125 -0.015946875 0.0
492 1 -0.020671875 -0.00125 -0.014765625 0.0
493 1 -0.020671875 -0.00125 -0.013584375 2.79378975481e-22
494 1 -0.020671875 -0.00125 -0.012403125 0.0
495 1 -0.020671875 -0.00125 -0.011221875 0.0
496 1 -0.020671875 -0.00125 -0.010040625 1.22156214432e-15
497 1 -0.020671875 -0.00125 -0.008859375 0.000126657572948
498 1 -0.020671875 -0.00125 -0.007678125 0.0199375166154
499 1 -0.020671875 -0.00125 -0.006496875 0.0335972902817
500 1 -0.020671875 -0.00125 -0.005315625 0.0138696939255
501 1 -0.020671875 -0.00125 -0.004134375 0.00154812961495
502 1 -0.020671875 -0.00125 -0.002953125 6.01557630165e-07
503 1 -0.020671875 -0.00125 -0.001771875 6.01557630165e-07
504 1 -0.020671875 -0.00125 -0.000590625 0.0
505 1 -0.020671875 -0.00125 0.000590625 0.0
506 1 -0.020671875 -0.00125 0.001771875 0.0
507 1 -0.020671875 -0.00125 0.002953125 1.22156214432e-15
508 1 -0.020671875 -0.00125 0.004134375 0.000126658700522
509 1 -0.020671875 -0.00125 0.005315625 1.22156214432e-15
510 1 -0.020671875 -0.00125 0.006496875 2.79378975481e-22
511 1 -0.020671875 -0.00125 0.007678125 1.74019667629e-11
512 1 -0.020671875 -0.00125 0.008859375 4.52220221462e-06
513 1 -0.020671875 -0.00125 0.010040625 4.52220221462e-06
514 1 -0.020671875 -0.00125 0.011221875 1.74019667629e-11
515 1 -0.020671875 -0.00125 0.012403125 0.00668184101894
516 1 -0.020671875 -0.00125 0.013584375 0.289024495321
517 1 -0.020671875 -0.00125 0.014765625 0.0443322841124
518 1 -0.020671875 -0.00125 0.015946875 0.000126658700522
519 1 -0.020671875 -0.00125 0.017128125 0.000126658700522
520 1 -0.020671875 -0.00125 0.018309375 0.0138696939255
521 1 -0.020671875 -0.00125 0.019490625 0.000126658700522
522 1 -0.020671875 -0.00125 0.020671875 0.00474645121499
523 1 -0.020671875 -0.00125 0.021853125 0.00474645121499
524 1 -0.020671875 -0.00125 0.023034375 1.74019667629e-11
525 1 -0.020671875 -0.00125 0.024215625 0.0
526 1 -0.020671875 -0.00125 0.025396875 0.0
527 1 -0.020671875 -0.00125 0.026578125 0.0
528 1 -0.020671875 -0.00125 0.027759375 0.0
529 1 -0.020671875 -0.00125 0.028940625 0.0
530 1 -0.020671875 -0.00125 0.030121875 0.0
531 1 -0.019490625 -0.00125 -0.031303125 0.000209614639352
532 1 -0.019490625 -0.00125 -0.030121875 0.000145652367353
533 1 -0.019490625 -0.00125 -0.028940625 0.0138697081285
534 1 -0.019490625 -0.00125 -0.027759375 0.01386971523
535 1 -0.019490625 -0.00125 -0.026578125 0.0085515641959
536 1 -0.019490625 -0.00125 -0.025396875 0.0138696939255
537 1 -0.019490625 -0.00125 -0.024215625 0.000535662176186
538 1 -0.019490625 -0.00125 -0.023034375 1.77731074088e-06
539 1 -0.019490625 -0.00125 -0.021853125 0.000535659512892
540 1 -0.019490625 -0.00125 -0.020671875 0.407146934215
541 1 -0.019490625 -0.00125 -0.019490625 0.0236792991671
542 1 -0.019490625 -0.00125 -0.018309375 0.0
543 1 -0.019490625 -0.00125 -0.017128125 0.0
544 1 -0.019490625 -0.00125 -0.015946875 0.0
545 1 -0.019490625 -0.00125 -0.014765625 1.28754471296e-08
546 1 -0.019490625 -0.00125 -0.013584375 0.000813959084656
547 1 -0.019490625 -0.00125 -0.012403125 0.0156289295152
548 1 -0.019490625 -0.00125 -0.011221875 0.00284459563651
549 1 -0.019490625 -0.00125 -0.010040625 0.010721384179
550 1 -0.019490625 -0.00125 -0.008859375 0.0515921529385
551 1 -0.019490625 -0.00125 -0.007678125 0.0267810609157
552 1 -0.019490625 -0.00125 -0.006496875 1.58378423431e-05
553 1 -0.019490625 -0.00125 -0.005315625 2.79378975481e-22
554 1 -0.019490625 -0.00125 -0.004134375 0.000126657322377
555 1 -0.019490625 -0.00125 -0.002953125 0.00154812961495
556 1 -0.019490625 -0.00125 -0.001771875 0.0138696939255
557 1 -0.019490625 -0.00125 -0.000590625 0.0232205315651
558 1 -0.019490625 -0.00125 0.000590625 0.0462613234581
559 1 -0.019490625 -0.00125 0.001771875 0.0550579936718
560 1 -0.019490625 -0.00125 0.002953125 0.0381872402081
561 1 -0.019490625 -0.00125 0.004134375 0.0324962702111
562 1 -0.019490625 -0.00125 0.005315625 0.0308802387238
563 1 -0.019490625 -0.00125 0.006496875 2.23031038224e-05
564 1 -0.019490625 -0.00125 0.007678125 0.0
565 1 -0.019490625 -0.00125 0.008859375 7.02299466978e-08
566 1 -0.019490625 -0.00125 0.010040625 0.0393805017402
567 1 -0.019490625 -0.00125 0.011221875 0.0293069981687
568 1 -0.019490625 -0.00125 0.012403125 0.0393805017402
569 1 -0.019490625 -0.00125 0.013584375 0.258190039969
570 1 -0.019490625 -0.00125 0.014765625 0.0187026608024
571 1 -0.019490625 -0.00125 0.015946875 0.00154813293271
572 1 -0.019490625 -0.00125 0.017128125 0.00565998798415
573 1 -0.019490625 -0.00125 0.018309375 0.00284458672872
574 1 -0.019490625 -0.00125 0.019490625 0.00188915027304
575 1 -0.019490625 -0.00125 0.020671875 0.00987185758727
576 1 -0.019490625 -0.00125 0.021853125 0.00565999405337
577 1 -0.019490625 -0.00125 0.023034375 0.0207856943371
578 1 -0.019490625 -0.00125 0.024215625 0.000891020350786
579 1 -0.019490625 -0.00125 0.025396875 2.79378975481e-22
580 1 -0.019490625 -0.00125 0.026578125 0.0
581 1 -0.019490625 -0.00125 0.027759375 0.0
582 1 -0.019490625 -0.00125 0.028940625 0.0
583 1 -0.019490625 -0.00125 0.030121875 0.0
584 1 -0.019490625 -0.00125 0.031303125 0.0
585 1 -0.018309375 -0.00125 -0.032484375 0.00920066229086
586 1 -0.018309375 -0.00125 -0.031303125 0.066085934973
587 1 -0.018309375 -0.00125 -0.030121875 0.000126658700522
588 1 -0.018309375 -0.00125 -0.028940625 0.00154813293271
589 1 -0.018309375 -0.00125 -0.027759375 0.0138696939255
590 1 -0.018309375 -0.00125 -0.026578125 0.0138696939255
591 1 -0.018309375 -0.00125 -0.025396875 0.0138696939255
592 1 -0.018309375 -0.00125 -0.024215625 0.0138696939255