ITEM: TIMESTEP
0
ITEM: NUMBER OF ATOMS
3080
ITEM: BOX BOUNDS ss ss ss
-3.7007399999999996e-02 3.7007399999999996e-02
-2.0002499999999999e-03 2.5000000000000004e-07
-3.7007399999999996e-02 3.7007399999999996e-02
ITEM: ATOMS id type x y z c_1
0 1 -0.037209375 -0.00125 -0.000590625 8.19548828049e-05
1 1 -0.036028125 -0.00125 -0.007678125 5.44412977554e-09
2 1 -0.036028125 -0.00125 -0.006496875 0.0
3 1 -0.036028125 -0.00125 -0.005315625 0.0
4 1 -0.036028125 -0.00125 -0.004134375 0.00207820714601
5 1 -0.036028125 -0.00125 -0.002953125 0.00805644213726
6 1 -0.036028125 -0.00125 -0.001771875 0.0199375166154
7 1 -0.036028125 -0.00125 -0.000590625 0.0558621049968
8 1 -0.036028125 -0.00125 0.000590625 0.335573622924
9 1 -0.036028125 -0.00125 0.001771875 0.654298085169
10 1 -0.036028125 -0.00125 0.002953125 0.101768821183
11 1 -0.036028125 -0.00125 0.004134375 3.70458005324e-08
12 1 -0.036028125 -0.00125 0.005315625 0.0
13 1 -0.036028125 -0.00125 0.006496875 3.70458005324e-08
14 1 -0.036028125 -0.00125 0.007678125 0.000455413315469
15 1 -0.034846875 -0.00125 -0.011221875 0.0
16 1 -0.034846875 -0.00125 -0.010040625 0.00021629040297
17 1 -0.034846875 -0.00125 -0.008859375 0.000455413315469
18 1 -0.034846875 -0.00125 -0.007678125 9.67053950835e-08
19 1 -0.034846875 -0.00125 -0.006496875 1.60797611259e-09
20 1 -0.034846875 -0.00125 -0.005315625 0.0175126135393
21 1 -0.034846875 -0.00125 -0.004134375 0.0405917903245
22 1 -0.034846875 -0.00125 -0.002953125 0.01386971523
23 1 -0.034846875 -0.00125 -0.001771875 0.0107214510125
24 1 -0.034846875 -0.00125 -0.000590625 0.352395273755
25 1 -0.034846875 -0.00125 0.000590625 0.361324541927
26 1 -0.034846875 -0.00125 0.001771875 0.580550471812
27 1 -0.034846875 -0.00125 0.002953125 0.412738808647
28 1 -0.034846875 -0.00125 0.004134375 0.159358746116
29 1 -0.034846875 -0.00125 0.005315625 0.00668182974929
30 1 -0.034846875 -0.00125 0.006496875 0.000741933140158
31 1 -0.034846875 -0.00125 0.007678125 0.0268391924812
32 1 -0.034846875 -0.00125 0.008859375 0.268886816989
33 1 -0.034846875 -0.00125 0.010040625 0.101768802477
34 1 -0.034846875 -0.00125 0.011221875 0.148381727149
35 1 -0.033665625 -0.00125 -0.013584375 0.00441037290552
36 1 -0.033665625 -0.00125 -0.012403125 0.232375684815
37 1 -0.033665625 -0.00125 -0.011221875 1.18026294841e-10
38 1 -0.033665625 -0.00125 -0.010040625 1.74019667629e-11
39 1 -0.033665625 -0.00125 -0.008859375 6.01557630165e-07
40 1 -0.033665625 -0.00125 -0.007678125 0.0
41 1 -0.033665625 -0.00125 -0.006496875 1.77729209249e-06
42 1 -0.033665625 -0.00125 -0.005315625 0.186171540908
43 1 -0.033665625 -0.00125 -0.004134375 0.224469737872
44 1 -0.033665625 -0.00125 -0.002953125 0.00906545268845
45 1 -0.033665625 -0.00125 -0.001771875 0.000126657572948
46 1 -0.033665625 -0.00125 -0.000590625 0.35105641724
47 1 -0.033665625 -0.00125 0.000590625 0.292342717184
48 1 -0.033665625 -0.00125 0.001771875 0.224469737872
49 1 -0.033665625 -0.00125 0.002953125 0.372493358291
50 1 -0.033665625 -0.00125 0.004134375 0.533564210637
51 1 -0.033665625 -0.00125 0.005315625 0.0778403011007
52 1 -0.033665625 -0.00125 0.006496875 7.6989341285e-05
53 1 -0.033665625 -0.00125 0.007678125 0.17575893658
54 1 -0.033665625 -0.00125 0.008859375 0.235286796702
55 1 -0.033665625 -0.00125 0.010040625 0.207309638309
56 1 -0.033665625 -0.00125 0.011221875 0.323094188482
57 1 -0.033665625 -0.00125 0.012403125 0.320687946562
58 1 -0.033665625 -0.00125 0.013584375 3.70458005324e-08
59 1 -0.032484375 -0.00125 -0.018309375 0.0
60 1 -0.032484375 -0.00125 -0.017128125 0.0
61 1 -0.032484375 -0.00125 -0.015946875 0.0
62 1 -0.032484375 -0.00125 -0.014765625 0.0
63 1 -0.032484375 -0.00125 -0.013584375 0.0102912074392
64 1 -0.032484375 -0.00125 -0.012403125 0.091233852548
65 1 -0.032484375 -0.00125 -0.011221875 2.79378975481e-22
66 1 -0.032484375 -0.00125 -0.010040625 0.0
67 1 -0.032484375 -0.00125 -0.008859375 0.0
68 1 -0.032484375 -0.00125 -0.007678125 0.0
69 1 -0.032484375 -0.00125 -0.006496875 0.00027645636475
70 1 -0.032484375 -0.00125 -0.005315625 0.119202705758
71 1 -0.032484375 -0.00125 -0.004134375 0.121086555026
72 1 -0.032484375 -0.00125 -0.002953125 0.000535660654302
73 1 -0.032484375 -0.00125 -0.001771875 3.14925560351e-13
74 1 -0.032484375 -0.00125 -0.000590625 0.125833527703
75 1 -0.032484375 -0.00125 0.000590625 0.2468917816
76 1 -0.032484375 -0.00125 0.001771875 0.149294114496
77 1 -0.032484375 -0.00125 0.002953125 0.146305836593
78 1 -0.032484375 -0.00125 0.004134375 0.0475687247245
79 1 -0.032484375 -0.00125 0.005315625 3.07879020573e-05
80 1 -0.032484375 -0.00125 0.006496875 0.000864761173892
81 1 -0.032484375 -0.00125 0.007678125 0.033597359974
82 1 -0.032484375 -0.00125 0.008859375 0.0973314573003
83 1 -0.032484375 -0.00125 0.010040625 0.0347170407724
84 1 -0.032484375 -0.00125 0.011221875 0.21372123369
85 1 -0.032484375 -0.00125 0.012403125 0.375844969653
86 1 -0.032484375 -0.00125 0.013584375 0.00255156984912
87 1 -0.032484375 -0.00125 0.014765625 0.0344434059137
88 1 -0.032484375 -0.00125 0.015946875 0.0991067332673
89 1 -0.032484375 -0.00125 0.017128125 0.232375684815
90 1 -0.032484375 -0.00125 0.018309375 0.175581592063
91 1 -0.031303125 -0.00125 -0.019490625 0.0
92 1 -0.031303125 -0.00125 -0.018309375 0.0
93 1 -0.031303125 -0.00125 -0.017128125 0.0
94 1 -0.031303125 -0.00125 -0.015946875 0.0
95 1 -0.031303125 -0.00125 -0.014765625 0.0
96 1 -0.031303125 -0.00125 -0.013584375 0.0187026608024
97 1 -0.031303125 -0.00125 -0.012403125 0.186171540908
98 1 -0.031303125 -0.00125 -0.011221875 0.0
99 1 -0.031303125 -0.00125 -0.010040625 0.0
100 1 -0.031303125 -0.00125 -0.008859375 1.74019667629e-11
101 1 -0.031303125 -0.00125 -0.007678125 0.0
102 1 -0.031303125 -0.00125 -0.006496875 0.10266435538
103 1 -0.031303125 -0.00125 -0.005315625 0.235286796702
104 1 -0.031303125 -0.00125 -0.004134375 0.000126657572948
105 1 -0.031303125 -0.00125 -0.002953125 1.74019667629e-11
106 1 -0.031303125 -0.00125 -0.001771875 0.0
107 1 -0.031303125 -0.00125 -0.000590625 0.00162888515903
108 1 -0.031303125 -0.00125 0.000590625 0.0539379025641
109 1 -0.031303125 -0.00125 0.001771875 0.00668184101894
110 1 -0.031303125 -0.00125 0.002953125 0.00154813293271
111 1 -0.031303125 -0.00125 0.004134375 4.52220221462e-06
112 1 -0.031303125 -0.00125 0.005315625 0.0
113 1 -0.031303125 -0.00125 0.006496875 0.000299131636816
114 1 -0.031303125 -0.00125 0.007678125 1.74019667629e-11
115 1 -0.031303125 -0.00125 0.008859375 4.52220221462e-06
116 1 -0.031303125 -0.00125 0.010040625 0.00474645121499
117 1 -0.031303125 -0.00125 0.011221875 0.343471904739
118 1 -0.031303125 -0.00125 0.012403125 0.274673256093
119 1 -0.031303125 -0.00125 0.013584375 0.036431516761
120 1 -0.031303125 -0.00125 0.014765625 0.292342717184
121 1 -0.031303125 -0.00125 0.015946875 0.14929428164
122 1 -0.031303125 -0.00125 0.017128125 0.372493358291
123 1 -0.031303125 -0.00125 0.018309375 0.379394804677
124 1 -0.031303125 -0.00125 0.019490625 0.106842311412
125 1 -0.030121875 -0.00125 -0.020671875 0.0
126 1 -0.030121875 -0.00125 -0.019490625 0.0
127 1 -0.030121875 -0.00125 -0.018309375 0.0
128 1 -0.030121875 -0.00125 -0.017128125 0.0
129 1 -0.030121875 -0.00125 -0.015946875 0.0
130 1 -0.030121875 -0.00125 -0.014765625 0.0
131 1 -0.030121875 -0.00125 -0.013584375 0.0267810506
132 1 -0.030121875 -0.00125 -0.012403125 0.186171540908
133 1 -0.030121875 -0.00125 -0.011221875 0.0
134 1 -0.030121875 -0.00125 -0.010040625 0.0
135 1 -0.030121875 -0.00125 -0.008859375 1.22156214432e-15
136 1 -0.030121875 -0.00125 -0.007678125 0.000891023127979
137 1 -0.030121875 -0.00125 -0.006496875 0.167516429113
138 1 -0.030121875 -0.00125 -0.005315625 0.321195978177
139 1 -0.030121875 -0.00125 -0.004134375 0.000126658700522
140 1 -0.030121875 -0.00125 -0.002953125 6.01557630165e-07
141 1 -0.030121875 -0.00125 -0.001771875 0.0
142 1 -0.030121875 -0.00125 -0.000590625 0.0
143 1 -0.030121875 -0.00125 0.000590625 1.28754471296e-08
144 1 -0.030121875 -0.00125 0.001771875 0.0
145 1 -0.030121875 -0.00125 0.002953125 0.0
146 1 -0.030121875 -0.00125 0.004134375 0.0
147 1 -0.030121875 -0.00125 0.005315625 0.0
148 1 -0.030121875 -0.00125 0.006496875 1.74019667629e-11
149 1 -0.030121875 -0.00125 0.007678125 0.0
150 1 -0.030121875 -0.00125 0.008859375 0.0
151 1 -0.030121875 -0.00125 0.010040625 1.74019667629e-11
152 1 -0.030121875 -0.00125 0.011221875 0.0138696939255
153 1 -0.030121875 -0.00125 0.012403125 0.252716464147
154 1 -0.030121875 -0.00125 0.013584375 0.0955753735432
155 1 -0.030121875 -0.00125 0.014765625 0.310081568404
156 1 -0.030121875 -0.00125 0.015946875 0.224469737872
157 1 -0.030121875 -0.00125 0.017128125 0.123928325831
158 1 -0.030121875 -0.00125 0.018309375 0.482099221396
159 1 -0.030121875 -0.00125 0.019490625 0.0421310577135
160 1 -0.030121875 -0.00125 0.020671875 0.00466864259094
161 1 -0.028940625 -0.00125 -0.021853125 0.0
162 1 -0.028940625 -0.00125 -0.020671875 0.0
163 1 -0.028940625 -0.00125 -0.019490625 0.0
164 1 -0.028940625 -0.00125 -0.018309375 0.0
165 1 -0.028940625 -0.00125 -0.017128125 0.0
166 1 -0.028940625 -0.00125 -0.015946875 0.0
167 1 -0.028940625 -0.00125 -0.014765625 0.0
168 1 -0.028940625 -0.00125 -0.013584375 0.0267810609157
169 1 -0.028940625 -0.00125 -0.012403125 0.292342717184
170 1 -0.028940625 -0.00125 -0.011221875 0.00474645121499
171 1 -0.028940625 -0.00125 -0.010040625 0.00668182974929
172 1 -0.028940625 -0.00125 -0.008859375 0.0243767952624
173 1 -0.028940625 -0.00125 -0.007678125 0.203052015623
174 1 -0.028940625 -0.00125 -0.006496875 0.425042808253
175 1 -0.028940625 -0.00125 -0.005315625 0.591734853249
176 1 -0.028940625 -0.00125 -0.004134375 0.419450043018
177 1 -0.028940625 -0.00125 -0.002953125 0.159358746116
178 1 -0.028940625 -0.00125 -0.001771875 0.0698876476892
179 1 -0.028940625 -0.00125 -0.000590625 0.0243767952624
180 1 -0.028940625 -0.00125 0.000590625 0.00474647462745
181 1 -0.028940625 -0.00125 0.001771875 0.000891023127979
182 1 -0.028940625 -0.00125 0.002953125 0.00474645121499
183 1 -0.028940625 -0.00125 0.004134375 0.0381872649833
184 1 -0.028940625 -0.00125 0.005315625 0.0293069224194
185 1 -0.028940625 -0.00125 0.006496875 0.00154812961495
186 1 -0.028940625 -0.00125 0.007678125 1.74019667629e-11
187 1 -0.028940625 -0.00125 0.008859375 0.0
188 1 -0.028940625 -0.00125 0.010040625 0.0
189 1 -0.028940625 -0.00125 0.011221875 4.52227625942e-06
190 1 -0.028940625 -0.00125 0.012403125 0.00668184101894
191 1 -0.028940625 -0.00125 0.013584375 0.0138697578391
192 1 -0.028940625 -0.00125 0.014765625 0.01386971523
193 1 -0.028940625 -0.00125 0.015946875 0.0293069224194
194 1 -0.028940625 -0.00125 0.017128125 0.186171540908
195 1 -0.028940625 -0.00125 0.018309375 0.649836265644
196 1 -0.028940625 -0.00125 0.019490625 0.00154812712664
197 1 -0.028940625 -0.00125 0.020671875 0.0
198 1 -0.028940625 -0.00125 0.021853125 2.52587523623e-07
199 1 -0.027759375 -0.00125 -0.024215625 0.0
200 1 -0.027759375 -0.00125 -0.023034375 0.0
201 1 -0.027759375 -0.00125 -0.021853125 0.0
202 1 -0.027759375 -0.00125 -0.020671875 0.0
203 1 -0.027759375 -0.00125 -0.019490625 0.0
204 1 -0.027759375 -0.00125 -0.018309375 0.0
205 1 -0.027759375 -0.00125 -0.017128125 0.0
206 1 -0.027759375 -0.00125 -0.015946875 0.0
207 1 -0.027759375 -0.00125 -0.014765625 0.0
208 1 -0.027759375 -0.00125 -0.013584375 0.0267810506
209 1 -0.027759375 -0.00125 -0.012403125 0.672127055792
210 1 -0.027759375 -0.00125 -0.011221875 0.0293069007767
211 1 -0.027759375 -0.00125 -0.010040625 0.0243767952624
212 1 -0.027759375 -0.00125 -0.008859375 0.0622852495443
213 1 -0.027759375 -0.00125 -0.007678125 0.091233852548
214 1 -0.027759375 -0.00125 -0.006496875 0.159359255263
215 1 -0.027759375 -0.00125 -0.005315625 0.133535038668
216 1 -0.027759375 -0.00125 -0.004134375 0.343471904739
217 1 -0.027759375 -0.00125 -0.002953125 0.383667992273
218 1 -0.027759375 -0.00125 -0.001771875 0.419449528188
219 1 -0.027759375 -0.00125 -0.000590625 0.448535864695
220 1 -0.027759375 -0.00125 0.000590625 0.238544505021
221 1 -0.027759375 -0.00125 0.001771875 0.235286796702
222 1 -0.027759375 -0.00125 0.002953125 0.298987939022
223 1 -0.027759375 -0.00125 0.004134375 0.401555093596
224 1 -0.027759375 -0.00125 0.005315625 0.361325055821
225 1 -0.027759375 -0.00125 0.006496875 0.191419108408
226 1 -0.027759375 -0.00125 0.007678125 4.42606186288e-05
227 1 -0.027759375 -0.00125 0.008859375 0.0
228 1 -0.027759375 -0.00125 0.010040625 1.74019667629e-11
229 1 -0.027759375 -0.00125 0.011221875 0.00668182974929
230 1 -0.027759375 -0.00125 0.012403125 0.000299132858986
231 1 -0.027759375 -0.00125 0.013584375 0.000126657572948
232 1 -0.027759375 -0.00125 0.014765625 1.74019667629e-11
233 1 -0.027759375 -0.00125 0.015946875 0.000126658700522
234 1 -0.027759375 -0.00125 0.017128125 0.252716464147
235 1 -0.027759375 -0.00125 0.018309375 0.401555093596
236 1 -0.027759375 -0.00125 0.019490625 1.77731074088e-06
237 1 -0.027759375 -0.00125 0.020671875 0.0
238 1 -0.027759375 -0.00125 0.021853125 0.0
239 1 -0.027759375 -0.00125 0.023034375 5.44412977554e-09
240 1 -0.027759375 -0.00125 0.024215625 0.0
241 1 -0.026578125 -0.00125 -0.026578125 0.0
242 1 -0.026578125 -0.00125 -0.025396875 0.0
243 1 -0.026578125 -0.00125 -0.024215625 0.0
244 1 -0.026578125 -0.00125 -0.023034375 0.0
245 1 -0.026578125 -0.00125 -0.021853125 0.0
246 1 -0.026578125 -0.00125 -0.020671875 0.0
247 1 -0.026578125 -0.00125 -0.019490625 7.49709589486e-44
248 1 -0.026578125 -0.00125 -0.018309375 0.0
249 1 -0.026578125 -0.00125 -0.017128125 0.0
250 1 -0.026578125 -0.00125 -0.015946875 0.0
251 1 -0.026578125 -0.00125 -0.014765625 0.0
252 1 -0.026578125 -0.00125 -0.013584375 0.0267810402844
253 1 -0.026578125 -0.00125 -0.012403125 0.525732272242
254 1 -0.026578125 -0.00125 -0.011221875 0.128706688471
255 1 -0.026578125 -0.00125 -0.010040625 3.07879020573e-05
256 1 -0.026578125 -0.00125 -0.008859375 1.28754471296e-08
257 1 -0.026578125 -0.00125 -0.007678125 1.60797611259e-09
258 1 -0.026578125 -0.00125 -0.006496875 0.0018891493173
259 1 -0.026578125 -0.00125 -0.005315625 0.000198679956635
260 1 -0.026578125 -0.00125 -0.004134375 0.000299132858986
261 1 -0.026578125 -0.00125 -0.002953125 0.0175125728268
262 1 -0.026578125 -0.00125 -0.001771875 0.0267809990218
263 1 -0.026578125 -0.00125 -0.000590625 0.0844388772747
264 1 -0.026578125 -0.00125 0.000590625 0.180430271432
265 1 -0.026578125 -0.00125 0.001771875 0.164447052173
266 1 -0.026578125 -0.00125 0.002953125 0.0229930456352
267 1 -0.026578125 -0.00125 0.004134375 0.00668182073358
268 1 -0.026578125 -0.00125 0.005315625 0.0156289676205
269 1 -0.026578125 -0.00125 0.006496875 0.241262967403
270 1 -0.026578125 -0.00125 0.007678125 0.233118486248
271 1 -0.026578125 -0.00125 0.008859375 0.172658474079
272 1 -0.026578125 -0.00125 0.010040625 0.21908624719
273 1 -0.026578125 -0.00125 0.011221875 0.229870206493
274 1 -0.026578125 -0.00125 0.012403125 0.0698874523288
275 1 -0.026578125 -0.00125 0.013584375 0.0469128345477
276 1 -0.026578125 -0.00125 0.014765625 0.00625985878742
277 1 -0.026578125 -0.00125 0.015946875 0.157333913073
278 1 -0.026578125 -0.00125 0.017128125 0.669900463498
279 1 -0.026578125 -0.00125 0.018309375 0.0564721545756
280 1 -0.026578125 -0.00125 0.019490625 9.25291560019e-26
281 1 -0.026578125 -0.00125 0.020671875 0.0
282 1 -0.026578125 -0.00125 0.021853125 3.14925560351e-13
283 1 -0.026578125 -0.00125 0.023034375 3.14925560351e-13
284 1 -0.026578125 -0.00125 0.024215625 0.0
285 1 -0.026578125 -0.00125 0.025396875 0.0
286 1 -0.026578125 -0.00125 0.026578125 0.0
287 1 -0.025396875 -0.00125 -0.026578125 0.0
288 1 -0.025396875 -0.00125 -0.025396875 0.0
289 1 -0.025396875 -0.00125 -0.024215625 0.0
290 1 -0.025396875 -0.00125 -0.023034375 1.74019667629e-11
291 1 -0.025396875 -0.00125 -0.021853125 0.0
292 1 -0.025396875 -0.00125 -0.020671875 0.0
293 1 -0.025396875 -0.00125 -0.019490625 1.77731074088e-06
294 1 -0.025396875 -0.00125 -0.018309375 1.74019667629e-11
295 1 -0.025396875 -0.00125 -0.017128125 0.0
296 1 -0.025396875 -0.00125 -0.015946875 0.0
297 1 -0.025396875 -0.00125 -0.014765625 1.74019667629e-11
298 1 -0.025396875 -0.00125 -0.013584375 0.000126657322377
299 1 -0.025396875 -0.00125 -0.012403125 0.441823107051
300 1 -0.025396875 -0.00125 -0.011221875 0.133535038668
301 1 -0.025396875 -0.00125 -0.010040625 1.74019667629e-11
302 1 -0.025396875 -0.00125 -0.008859375 1.74019667629e-11
303 1 -0.025396875 -0.00125 -0.007678125 0.00154812961495
304 1 -0.025396875 -0.00125 -0.006496875 0.0011868239541
305 1 -0.025396875 -0.00125 -0.005315625 1.74019667629e-11
306 1 -0.025396875 -0.00125 -0.004134375 0.0
307 1 -0.025396875 -0.00125 -0.002953125 0.0
308 1 -0.025396875 -0.00125 -0.001771875 4.52220221462e-06
309 1 -0.025396875 -0.00125 -0.000590625 4.52220221462e-06
310 1 -0.025396875 -0.00125 0.000590625 3.07878012444e-05
311 1 -0.025396875 -0.00125 0.001771875 0.0
312 1 -0.025396875 -0.00125 0.002953125 0.0
313 1 -0.025396875 -0.00125 0.004134375 0.0
314 1 -0.025396875 -0.00125 0.005315625 0.0
315 1 -0.025396875 -0.00125 0.006496875 2.79378975481e-22
316 1 -0.025396875 -0.00125 0.007678125 0.00154813293271
317 1 -0.025396875 -0.00125 0.008859375 0.0
318 1 -0.025396875 -0.00125 0.010040625 1.74019667629e-11
319 1 -0.025396875 -0.00125 0.011221875 0.010721438861
320 1 -0.025396875 -0.00125 0.012403125 0.010721438861
321 1 -0.025396875 -0.00125 0.013584375 0.0149103771607
322 1 -0.025396875 -0.00125 0.014765625 0.186171540908
323 1 -0.025396875 -0.00125 0.015946875 0.343471344865
324 1 -0.025396875 -0.00125 0.017128125 0.372493358291
325 1 -0.025396875 -0.00125 0.018309375 0.000126658700522
326 1 -0.025396875 -0.00125 0.019490625 0.000126658700522
327 1 -0.025396875 -0.00125 0.020671875 0.000126658700522
328 1 -0.025396875 -0.00125 0.021853125 0.000126658700522
329 1 -0.025396875 -0.00125 0.023034375 0.00474645121499
330 1 -0.025396875 -0.00125 0.024215625 0.000126658700522
331 1 -0.025396875 -0.00125 0.025396875 0.0
332 1 -0.025396875 -0.00125 0.026578125 0.0
333 1 -0.024215625 -0.00125 -0.027759375 1.7269595626e-06
334 1 -0.024215625 -0.00125 -0.026578125 0.0
335 1 -0.024215625 -0.00125 -0.025396875 0.0
336 1 -0.024215625 -0.00125 -0.024215625 1.74019667629e-11
337 1 -0.024215625 -0.00125 -0.023034375 0.0
338 1 -0.024215625 -0.00125 -0.021853125 0.0
339 1 -0.024215625 -0.00125 -0.020671875 0.0
340 1 -0.024215625 -0.00125 -0.019490625 0.000535662176186
341 1 -0.024215625 -0.00125 -0.018309375 6.01557630165e-07
342 1 -0.024215625 -0.00125 -0.017128125 0.0
343 1 -0.024215625 -0.00125 -0.015946875 4.52220221462e-06
344 1 -0.024215625 -0.00125 -0.014765625 4.52220221462e-06
345 1 -0.024215625 -0.00125 -0.013584375 1.77729209249e-06
346 1 -0.024215625 -0.00125 -0.012403125 0.332327069371
347 1 -0.024215625 -0.00125 -0.011221875 0.186171540908
348 1 -0.024215625 -0.00125 -0.010040625 0.000299131636816
349 1 -0.024215625 -0.00125 -0.008859375 0.00249557400626
350 1 -0.024215625 -0.00125 -0.007678125 0.00154812961495
351 1 -0.024215625 -0.00125 -0.006496875 1.77729209249e-06
352 1 -0.024215625 -0.00125 -0.005315625 0.0
353 1 -0.024215625 -0.00125 -0.004134375 0.0
354 1 -0.024215625 -0.00125 -0.002953125 0.0
355 1 -0.024215625 -0.00125 -0.001771875 1.74019667629e-11
356 1 -0.024215625 -0.00125 -0.000590625 1.74019667629e-11
357 1 -0.024215625 -0.00125 0.000590625 0.000741931199387
358 1 -0.024215625 -0.00125 0.001771875 4.52220221462e-06
359 1 -0.024215625 -0.00125 0.002953125 0.0
360 1 -0.024215625 -0.00125 0.004134375 0.0
361 1 -0.024215625 -0.00125 0.005315625 0.0
362 1 -0.024215625 -0.00125 0.006496875 2.79378975481e-22
363 1 -0.024215625 -0.00125 0.007678125 0.00474644221021
364 1 -0.024215625 -0.00125 0.008859375 0.000126657572948
365 1 -0.024215625 -0.00125 0.010040625 0.0
366 1 -0.024215625 -0.00125 0.011221875 1.74019667629e-11
367 1 -0.024215625 -0.00125 0.012403125 0.0
368 1 -0.024215625 -0.00125 0.013584375 1.77731074088e-06
369 1 -0.024215625 -0.00125 0.014765625 0.0698876476892
370 1 -0.024215625 -0.00125 0.015946875 0.620802845142
371 1 -0.024215625 -0.00125 0.017128125 0.14929428164
372 1 -0.024215625 -0.00125 0.018309375 0.000126658700522
373 1 -0.024215625 -0.00125 0.019490625 0.00284458672872
374 1 -0.024215625 -0.00125 0.020671875 0.000126658700522
375 1 -0.024215625 -0.00125 0.021853125 0.00154813293271
376 1 -0.024215625 -0.00125 0.023034375 0.0138696939255
377 1 -0.024215625 -0.00125 0.024215625 0.00154813293271
378 1 -0.024215625 -0.00125 0.025396875 1.74019667629e-11
379 1 -0.024215625 -0.00125 0.026578125 0.0
380 1 -0.024215625 -0.00125 0.027759375 0.0
381 1 -0.023034375 -0.00125 -0.027759375 0.00106278235535
382 1 -0.023034375 -0.00125 -0.026578125 0.00154813293271
383 1 -0.023034375 -0.00125 -0.025396875 1.22156214432e-15
384 1 -0.023034375 -0.00125 -0.024215625 0.0
385 1 -0.023034375 -0.00125 -0.023034375 0.0
386 1 -0.023034375 -0.00125 -0.021853125 0.0
387 1 -0.023034375 -0.00125 -0.020671875 1.74019667629e-11
388 1 -0.023034375 -0.00125 -0.019490625 0.00284458672872
389 1 -0.023034375 -0.00125 -0.018309375 6.01557630165e-07
390 1 -0.023034375 -0.00125 -0.017128125 6.01557630165e-07
391 1 -0.023034375 -0.00125 -0.015946875 0.00154813293271
392 1 -0.023034375 -0.00125 -0.014765625 0.00154813293271
393 1 -0.023034375 -0.00125 -0.013584375 0.00154812961495
394 1 -0.023034375 -0.00125 -0.012403125 0.321195978177
395 1 -0.023034375 -0.00125 -0.011221875 0.14929428164
396 1 -0.023034375 -0.00125 -0.010040625 0.000891017573599
397 1 -0.023034375 -0.00125 -0.008859375 0.000126657572948
398 1 -0.023034375 -0.00125 -0.007678125 4.52220221462e-06
399 1 -0.023034375 -0.00125 -0.006496875 0.0
400 1 -0.023034375 -0.00125 -0.005315625 0.0
401 1 -0.023034375 -0.00125 -0.004134375 0.0
402 1 -0.023034375 -0.00125 -0.002953125 0.0
403 1 -0.023034375 -0.00125 -0.001771875 0.0
404 1 -0.023034375 -0.00125 -0.000590625 0.0
405 1 -0.023034375 -0.00125 0.000590625 7.69885813891e-05
406 1 -0.023034375 -0.00125 0.001771875 0.0243767756543
407 1 -0.023034375 -0.00125 0.002953125 0.00474644221021
408 1 -0.023034375 -0.00125 0.004134375 0.000126657572948
409 1 -0.023034375 -0.00125 0.005315625 0.0
410 1 -0.023034375 -0.00125 0.006496875 3.07878012444e-05
411 1 -0.023034375 -0.00125 0.007678125 0.000891017573599
412 1 -0.023034375 -0.00125 0.008859375 0.00474644221021
413 1 -0.023034375 -0.00125 0.010040625 0.000126657572948
414 1 -0.023034375 -0.00125 0.011221875 0.0
415 1 -0.023034375 -0.00125 0.012403125 0.0
416 1 -0.023034375 -0.00125 0.013584375 1.74019667629e-11
417 1 -0.023034375 -0.00125 0.014765625 0.123928325831
418 1 -0.023034375 -0.00125 0.015946875 0.850705634787
419 1 -0.023034375 -0.00125 0.017128125 0.0443322841124
420 1 -0.023034375 -0.00125 0.018309375 0.0
421 1 -0.023034375 -0.00125 0.019490625 0.000126658700522
422 1 -0.023034375 -0.00125 0.020671875 0.0138696939255
423 1 -0.023034375 -0.00125 0.021853125 0.000126658700522
424 1 -0.023034375 -0.00125 0.023034375 0.0138696939255
425 1 -0.023034375 -0.00125 0.024215625 0.000891023127979
426 1 -0.023034375 -0.00125 0.025396875 1.74019667629e-11
427 1 -0.023034375 -0.00125 0.026578125 0.0
428 1 -0.023034375 -0.00125 0.027759375 0.0
429 1 -0.021853125 -0.00125 -0.028940625 0.0904523633156
430 1 -0.021853125 -0.00125 -0.027759375 0.0883131183637
431 1 -0.021853125 -0.00125 -0.026578125 0.281290170023
432 1 -0.021853125 -0.00125 -0.025396875 0.14929428164
433 1 -0.021853125 -0.00125 -0.024215625 0.14929428164
434 1 -0.021853125 -0.00125 -0.023034375 0.123928325831
435 1 -0.021853125 -0.00125 -0.021853125 0.123928325831
436 1 -0.021853125 -0.00125 -0.020671875 0.091233852548
437 1 -0.021853125 -0.00125 -0.019490625 0.0564721545756
438 1 -0.021853125 -0.00125 -0.018309375 0.0243767756543
439 1 -0.021853125 -0.00125 -0.017128125 0.00474645121499
440 1 -0.021853125 -0.00125 -0.015946875 0.0138696939255
441 1 -0.021853125 -0.00125 -0.014765625 0.00474645121499
442 1 -0.021853125 -0.00125 -0.013584375 0.0122342798436
443 1 -0.021853125 -0.00125 -0.012403125 0.332327069371
444 1 -0.021853125 -0.00125 -0.011221875 0.263674497482
445 1 -0.021853125 -0.00125 -0.010040625 1.74019667629e-11
446 1 -0.021853125 -0.00125 -0.008859375 0.00154813293271
447 1 -0.021853125 -0.00125 -0.007678125 0.01386971523
448 1 -0.021853125 -0.00125 -0.006496875 0.000299131636816
449 1 -0.021853125 -0.00125 -0.005315625 1.74019667629e-11
450 1 -0.021853125 -0.00125 -0.004134375 0.0
451 1 -0.021853125 -0.00125 -0.002953125 1.74019667629e-11
452 1 -0.021853125 -0.00125 -0.001771875 0.0
453 1 -0.021853125 -0.00125 -0.000590625 0.0
454 1 -0.021853125 -0.00125 0.000590625 1.74019667629e-11
455 1 -0.021853125 -0.00125 0.001771875 0.00668184101894
456 1 -0.021853125 -0.00125 0.002953125 0.0293069224194
457 1 -0.021853125 -0.00125 0.004134375 0.000126658700522
458 1 -0.021853125 -0.00125 0.005315625 1.74019667629e-11
459 1 -0.021853125 -0.00125 0.006496875 1.77729209249e-06
460 1 -0.021853125 -0.00125 0.007678125 0.00154813293271
461 1 -0.021853125 -0.00125 0.008859375 0.000126657572948
462 1 -0.021853125 -0.00125 0.010040625 0.00474644221021
463 1 -0.021853125 -0.00125 0.011221875 0.000126657572948
464 1 -0.021853125 -0.00125 0.012403125 0.0
465 1 -0.021853125 -0.00125 0.013584375 5.5634138017e-05
466 1 -0.021853125 -0.00125 0.014765625 0.235286796702
467 1 -0.021853125 -0.00125 0.015946875 0.459722771872
468 1 -0.021853125 -0.00125 0.017128125 0.000891023127979
469 1 -0.021853125 -0.00125 0.018309375 0.000126658700522
470 1 -0.021853125 -0.00125 0.019490625 0.00284458672872
471 1 -0.021853125 -0.00125 0.020671875 0.000126658700522
472 1 -0.021853125 -0.00125 0.021853125 0.0138696939255
473 1 -0.021853125 -0.00125 0.023034375 0.0138696939255
474 1 -0.021853125 -0.00125 0.024215625 0.00154813293271
475 1 -0.021853125 -0.00125 0.025396875 6.01557630165e-07
476 1 -0.021853125 -0.00125 0.026578125 2.79378975481e-22
477 1 -0.021853125 -0.00125 0.027759375 0.0
478 1 -0.021853125 -0.00125 0.028940625 0.0
479 1 -0.020671875 -0.00125 -0.030121875 0.0
480 1 -0.020671875 -0.00125 -0.028940625 0.000245540111831
481 1 -0.020671875 -0.00125 -0.027759375 0.000126658700522
482 1 -0.020671875 -0.00125 -0.026578125 0.0187026438913
483 1 -0.020671875 -0.00125 -0.025396875 0.091233852548
484 1 -0.020671875 -0.00125 -0.024215625 0.091233852548
485 1 -0.020671875 -0.00125 -0.023034375 0.186171540908
486 1 -0.020671875 -0.00125 -0.021853125 0.281290216208
487 1 -0.020671875 -0.00125 -0.020671875 0.252716464147
488 1 -0.020671875 -0.00125 -0.019490625 0.136454910525
489 1 -0.020671875 -0.00125 -0.018309375 0.321195978177
490 1 -0.020671875 -0.00125 -0.017128125 0.186171540908
491 1 -0.020671875 -0.00125 -0.015946875 0.0138696939255
492 1 -0.020671875 -0.00125 -0.014765625 0.0293069007767
493 1 -0.020671875 -0.00125 -0.013584375 0.0698876639693
494 1 -0.020671875 -0.00125 -0.012403125 0.430635859907
495 1 -0.020671875 -0.00125 -0.011221875 0.350163267536
496 1 -0.020671875 -0.00125 -0.010040625 0.0243767756543
497 1 -0.020671875 -0.00125 -0.008859375 0.091233852548
498 1 -0.020671875 -0.00125 -0.007678125 0.0622852495443
499 1 -0.020671875 -0.00125 -0.006496875 0.000126656946521
500 1 -0.020671875 -0.00125 -0.005315625 4.52220221462e-06
501 1 -0.020671875 -0.00125 -0.004134375 0.0
502 1 -0.020671875 -0.00125 -0.002953125 0.0107214510125
503 1 -0.020671875 -0.00125 -0.001771875 0.0443322841124
504 1 -0.020671875 -0.00125 -0.000590625 0.0698876476892
505 1 -0.020671875 -0.00125 0.000590625 0.066041103006
506 1 -0.020671875 -0.00125 0.001771875 0.000891023127979
507 1 -0.020671875 -0.00125 0.002953125 6.01557630165e-07
508 1 -0.020671875 -0.00125 0.004134375 0.0199375341518
509 1 -0.020671875 -0.00125 0.005315625 0.105365860212
510 1 -0.020671875 -0.00125 0.006496875 0.00734858779095
511 1 -0.020671875 -0.00125 0.007678125 0.000126658700522
512 1 -0.020671875 -0.00125 0.008859375 1.74019667629e-11
513 1 -0.020671875 -0.00125 0.010040625 0.000126657572948
514 1 -0.020671875 -0.00125 0.011221875 0.0138696939255
515 1 -0.020671875 -0.00125 0.012403125 0.00668182974929
516 1 -0.020671875 -0.00125 0.013584375 0.000299131636816
517 1 -0.020671875 -0.00125 0.014765625 0.186171540908
518 1 -0.020671875 -0.00125 0.015946875 0.224469737872
519 1 -0.020671875 -0.00125 0.017128125 0.000126658700522
520 1 -0.020671875 -0.00125 0.018309375 0.000126658700522
521 1 -0.020671875 -0.00125 0.019490625 0.0138696939255
522 1 -0.020671875 -0.00125 0.020671875 0.0138696939255
523 1 -0.020671875 -0.00125 0.021853125 0.0138696939255
524 1 -0.020671875 -0.00125 0.023034375 0.00154813293271
525 1 -0.020671875 -0.00125 0.024215625 0.00154813293271
526 1 -0.020671875 -0.00125 0.025396875 1.74019667629e-11
527 1 -0.020671875 -0.00125 0.026578125 7.02309649834e-08
528 1 -0.020671875 -0.00125 0.027759375 0.0
529 1 -0.020671875 -0.00125 0.028940625 0.0
530 1 -0.020671875 -0.00125 0.030121875 0.0
531 1 -0.019490625 -0.00125 -0.031303125 0.0
532 1 -0.019490625 -0.00125 -0.030121875 0.0
533 1 -0.019490625 -0.00125 -0.028940625 0.0
534 1 -0.019490625 -0.00125 -0.027759375 0.0
535 1 -0.019490625 -0.00125 -0.026578125 0.0
536 1 -0.019490625 -0.00125 -0.025396875 0.0
537 1 -0.019490625 -0.00125 -0.024215625 0.0
538 1 -0.019490625 -0.00125 -0.023034375 3.07878012444e-05
539 1 -0.019490625 -0.00125 -0.021853125 0.0412041993389
540 1 -0.019490625 -0.00125 -0.020671875 0.107179604771
541 1 -0.019490625 -0.00125 -0.019490625 0.0459370552727
542 1 -0.019490625 -0.00125 -0.018309375 0.0293069657047
543 1 -0.019490625 -0.00125 -0.017128125 0.123928325831
544 1 -0.019490625 -0.00125 -0.015946875 0.0698874686089
545 1 -0.019490625 -0.00125 -0.014765625 0.0364315046602
546 1 -0.019490625 -0.00125 -0.013584375 0.168542126976
547 1 -0.019490625 -0.00125 -0.012403125 0.427280082361
548 1 -0.019490625 -0.00125 -0.011221875 0.662102277217
549 1 -0.019490625 -0.00125 -0.010040625 0.35016382772
550 1 -0.019490625 -0.00125 -0.008859375 0.270269682553
551 1 -0.019490625 -0.00125 -0.007678125 0.114532095179
552 1 -0.019490625 -0.00125 -0.006496875 0.0443322308432
553 1 -0.019490625 -0.00125 -0.005315625 0.066041103006
554 1 -0.019490625 -0.00125 -0.004134375 0.154307310461