ITEM: TIMESTEP
0
ITEM: NUMBER OF ATOMS
3080
ITEM: BOX BOUNDS ss ss ss
-3.7007399999999996e-02 3.7007399999999996e-02
-2.0002499999999999e-03 2.5000000000000004e-07
-3.7007399999999996e-02 3.7007399999999996e-02
ITEM: ATOMS id type x y z c_1
0 1 -0.037209375 -0.00125 -0.000590625 1.0
1 1 -0.036028125 -0.00125 -0.007678125 0.0
2 1 -0.036028125 -0.00125 -0.006496875 0.0
3 1 -0.036028125 -0.00125 -0.005315625 1.74019667629e-11
4 1 -0.036028125 -0.00125 -0.004134375 0.0199375166154
5 1 -0.036028125 -0.00125 -0.002953125 0.301205125778
6 1 -0.036028125 -0.00125 -0.001771875 0.560414611067
7 1 -0.036028125 -0.00125 -0.000590625 0.182529172436
8 1 -0.036028125 -0.00125 0.000590625 1.76698627044e-07
9 1 -0.036028125 -0.00125 0.001771875 0.0
10 1 -0.036028125 -0.00125 0.002953125 0.0
11 1 -0.036028125 -0.00125 0.004134375 0.0
12 1 -0.036028125 -0.00125 0.005315625 0.0
13 1 -0.036028125 -0.00125 0.006496875 0.0
14 1 -0.036028125 -0.00125 0.007678125 0.0
15 1 -0.034846875 -0.00125 -0.011221875 0.0
16 1 -0.034846875 -0.00125 -0.010040625 0.135479596443
17 1 -0.034846875 -0.00125 -0.008859375 0.182529172436
18 1 -0.034846875 -0.00125 -0.007678125 0.0
19 1 -0.034846875 -0.00125 -0.006496875 0.0
20 1 -0.034846875 -0.00125 -0.005315625 0.0
21 1 -0.034846875 -0.00125 -0.004134375 0.00154813293271
22 1 -0.034846875 -0.00125 -0.002953125 0.27026908404
23 1 -0.034846875 -0.00125 -0.001771875 0.419449528188
24 1 -0.034846875 -0.00125 -0.000590625 0.235286796702
25 1 -0.034846875 -0.00125 0.000590625 1.77729209249e-06
26 1 -0.034846875 -0.00125 0.001771875 0.0
27 1 -0.034846875 -0.00125 0.002953125 0.0
28 1 -0.034846875 -0.00125 0.004134375 0.0
29 1 -0.034846875 -0.00125 0.005315625 0.0
30 1 -0.034846875 -0.00125 0.006496875 0.0
31 1 -0.034846875 -0.00125 0.007678125 0.0
32 1 -0.034846875 -0.00125 0.008859375 0.00106278235535
33 1 -0.034846875 -0.00125 0.010040625 0.00207820714601
34 1 -0.034846875 -0.00125 0.011221875 0.00920066229086
35 1 -0.033665625 -0.00125 -0.013584375 0.0418209245057
36 1 -0.033665625 -0.00125 -0.012403125 0.182529172436
37 1 -0.033665625 -0.00125 -0.011221875 1.18026294841e-10
38 1 -0.033665625 -0.00125 -0.010040625 0.123928325831
39 1 -0.033665625 -0.00125 -0.008859375 0.186171540908
40 1 -0.033665625 -0.00125 -0.007678125 4.52227625942e-06
41 1 -0.033665625 -0.00125 -0.006496875 7.02299466978e-08
42 1 -0.033665625 -0.00125 -0.005315625 0.0
43 1 -0.033665625 -0.00125 -0.004134375 1.22156214432e-15
44 1 -0.033665625 -0.00125 -0.002953125 0.091233852548
45 1 -0.033665625 -0.00125 -0.001771875 0.39037452881
46 1 -0.033665625 -0.00125 -0.000590625 0.252716464147
47 1 -0.033665625 -0.00125 0.000590625 0.00118682600863
48 1 -0.033665625 -0.00125 0.001771875 1.74019667629e-11
49 1 -0.033665625 -0.00125 0.002953125 0.0
50 1 -0.033665625 -0.00125 0.004134375 0.0
51 1 -0.033665625 -0.00125 0.005315625 0.0
52 1 -0.033665625 -0.00125 0.006496875 0.0
53 1 -0.033665625 -0.00125 0.007678125 0.0
54 1 -0.033665625 -0.00125 0.008859375 1.22156214432e-15
55 1 -0.033665625 -0.00125 0.010040625 0.186171540908
56 1 -0.033665625 -0.00125 0.011221875 0.232162758618
57 1 -0.033665625 -0.00125 0.012403125 0.0180058544457
58 1 -0.033665625 -0.00125 0.013584375 0.000545072959305
59 1 -0.032484375 -0.00125 -0.018309375 0.00920066229086
60 1 -0.032484375 -0.00125 -0.017128125 0.103819694314
61 1 -0.032484375 -0.00125 -0.015946875 0.104085149205
62 1 -0.032484375 -0.00125 -0.014765625 0.0024420292691
63 1 -0.032484375 -0.00125 -0.013584375 0.0271522239206
64 1 -0.032484375 -0.00125 -0.012403125 0.224469737872
65 1 -0.032484375 -0.00125 -0.011221875 4.52221866893e-06
66 1 -0.032484375 -0.00125 -0.010040625 0.0443322441605
67 1 -0.032484375 -0.00125 -0.008859375 0.407146934215
68 1 -0.032484375 -0.00125 -0.007678125 0.172658474079
69 1 -0.032484375 -0.00125 -0.006496875 9.93848520394e-05
70 1 -0.032484375 -0.00125 -0.005315625 0.0
71 1 -0.032484375 -0.00125 -0.004134375 0.0
72 1 -0.032484375 -0.00125 -0.002953125 1.28752206004e-08
73 1 -0.032484375 -0.00125 -0.001771875 0.00228020850123
74 1 -0.032484375 -0.00125 -0.000590625 0.00566001226104
75 1 -0.032484375 -0.00125 0.000590625 0.0802910104399
76 1 -0.032484375 -0.00125 0.001771875 0.000375784453599
77 1 -0.032484375 -0.00125 0.002953125 3.14925560351e-13
78 1 -0.032484375 -0.00125 0.004134375 0.0
79 1 -0.032484375 -0.00125 0.005315625 0.0
80 1 -0.032484375 -0.00125 0.006496875 0.0
81 1 -0.032484375 -0.00125 0.007678125 0.0
82 1 -0.032484375 -0.00125 0.008859375 0.0529662928778
83 1 -0.032484375 -0.00125 0.010040625 0.21372123369
84 1 -0.032484375 -0.00125 0.011221875 0.00474647462745
85 1 -0.032484375 -0.00125 0.012403125 2.79378975481e-22
86 1 -0.032484375 -0.00125 0.013584375 4.39497949115e-16
87 1 -0.032484375 -0.00125 0.014765625 8.50218305249e-07
88 1 -0.032484375 -0.00125 0.015946875 0.0
89 1 -0.032484375 -0.00125 0.017128125 0.0
90 1 -0.032484375 -0.00125 0.018309375 0.0
91 1 -0.031303125 -0.00125 -0.019490625 0.320687667331
92 1 -0.031303125 -0.00125 -0.018309375 0.123537519888
93 1 -0.031303125 -0.00125 -0.017128125 0.00154813293271
94 1 -0.031303125 -0.00125 -0.015946875 0.133535038668
95 1 -0.031303125 -0.00125 -0.014765625 0.159358746116
96 1 -0.031303125 -0.00125 -0.013584375 0.138410987768
97 1 -0.031303125 -0.00125 -0.012403125 0.470910984646
98 1 -0.031303125 -0.00125 -0.011221875 0.0622852495443
99 1 -0.031303125 -0.00125 -0.010040625 0.0175126135393
100 1 -0.031303125 -0.00125 -0.008859375 0.0175125891118
101 1 -0.031303125 -0.00125 -0.007678125 0.0509111013046
102 1 -0.031303125 -0.00125 -0.006496875 3.14925560351e-13
103 1 -0.031303125 -0.00125 -0.005315625 1.74019667629e-11
104 1 -0.031303125 -0.00125 -0.004134375 0.0
105 1 -0.031303125 -0.00125 -0.002953125 1.74019667629e-11
106 1 -0.031303125 -0.00125 -0.001771875 1.22156214432e-15
107 1 -0.031303125 -0.00125 -0.000590625 0.00154813293271
108 1 -0.031303125 -0.00125 0.000590625 0.00668183425715
109 1 -0.031303125 -0.00125 0.001771875 4.42606186288e-05
110 1 -0.031303125 -0.00125 0.002953125 0.0
111 1 -0.031303125 -0.00125 0.004134375 0.0
112 1 -0.031303125 -0.00125 0.005315625 0.0
113 1 -0.031303125 -0.00125 0.006496875 0.0
114 1 -0.031303125 -0.00125 0.007678125 0.0
115 1 -0.031303125 -0.00125 0.008859375 0.186171540908
116 1 -0.031303125 -0.00125 0.010040625 0.252716464147
117 1 -0.031303125 -0.00125 0.011221875 1.22156214432e-15
118 1 -0.031303125 -0.00125 0.012403125 0.0
119 1 -0.031303125 -0.00125 0.013584375 0.0
120 1 -0.031303125 -0.00125 0.014765625 0.0
121 1 -0.031303125 -0.00125 0.015946875 0.0
122 1 -0.031303125 -0.00125 0.017128125 0.0
123 1 -0.031303125 -0.00125 0.018309375 0.0
124 1 -0.031303125 -0.00125 0.019490625 0.0
125 1 -0.030121875 -0.00125 -0.020671875 0.000167490860231
126 1 -0.030121875 -0.00125 -0.019490625 0.0865918129458
127 1 -0.030121875 -0.00125 -0.018309375 0.186171540908
128 1 -0.030121875 -0.00125 -0.017128125 0.0778403180889
129 1 -0.030121875 -0.00125 -0.015946875 0.0509111013046
130 1 -0.030121875 -0.00125 -0.014765625 0.0778403180889
131 1 -0.030121875 -0.00125 -0.013584375 0.258190177523
132 1 -0.030121875 -0.00125 -0.012403125 0.638675411355
133 1 -0.030121875 -0.00125 -0.011221875 0.0912339065983
134 1 -0.030121875 -0.00125 -0.010040625 1.74019667629e-11
135 1 -0.030121875 -0.00125 -0.008859375 4.52227625942e-06
136 1 -0.030121875 -0.00125 -0.007678125 0.000891017573599
137 1 -0.030121875 -0.00125 -0.006496875 1.28754471296e-08
138 1 -0.030121875 -0.00125 -0.005315625 0.0
139 1 -0.030121875 -0.00125 -0.004134375 0.0
140 1 -0.030121875 -0.00125 -0.002953125 6.01557630165e-07
141 1 -0.030121875 -0.00125 -0.001771875 0.0622852805866
142 1 -0.030121875 -0.00125 -0.000590625 0.105365916973
143 1 -0.030121875 -0.00125 0.000590625 0.00734856622555
144 1 -0.030121875 -0.00125 0.001771875 0.000126658700522
145 1 -0.030121875 -0.00125 0.002953125 0.0138696939255
146 1 -0.030121875 -0.00125 0.004134375 0.0199375341518
147 1 -0.030121875 -0.00125 0.005315625 0.01386971523
148 1 -0.030121875 -0.00125 0.006496875 0.00987186913413
149 1 -0.030121875 -0.00125 0.007678125 0.000126658700522
150 1 -0.030121875 -0.00125 0.008859375 0.224469737872
151 1 -0.030121875 -0.00125 0.010040625 0.186171540908
152 1 -0.030121875 -0.00125 0.011221875 6.01557630165e-07
153 1 -0.030121875 -0.00125 0.012403125 0.0
154 1 -0.030121875 -0.00125 0.013584375 0.0
155 1 -0.030121875 -0.00125 0.014765625 0.0
156 1 -0.030121875 -0.00125 0.015946875 0.0
157 1 -0.030121875 -0.00125 0.017128125 1.74019667629e-11
158 1 -0.030121875 -0.00125 0.018309375 0.0
159 1 -0.030121875 -0.00125 0.019490625 0.0
160 1 -0.030121875 -0.00125 0.020671875 0.0
161 1 -0.028940625 -0.00125 -0.021853125 0.00466864259094
162 1 -0.028940625 -0.00125 -0.020671875 1.61610918776e-06
163 1 -0.028940625 -0.00125 -0.019490625 0.00855160641309
164 1 -0.028940625 -0.00125 -0.018309375 0.159358746116
165 1 -0.028940625 -0.00125 -0.017128125 0.235286796702
166 1 -0.028940625 -0.00125 -0.015946875 0.0443323240644
167 1 -0.028940625 -0.00125 -0.014765625 0.091233852548
168 1 -0.028940625 -0.00125 -0.013584375 0.346817404976
169 1 -0.028940625 -0.00125 -0.012403125 0.21372123369
170 1 -0.028940625 -0.00125 -0.011221875 0.00474645121499
171 1 -0.028940625 -0.00125 -0.010040625 0.000299132858986
172 1 -0.028940625 -0.00125 -0.008859375 1.74019667629e-11
173 1 -0.028940625 -0.00125 -0.007678125 0.000891017573599
174 1 -0.028940625 -0.00125 -0.006496875 0.0308802387238
175 1 -0.028940625 -0.00125 -0.005315625 0.0381872649833
176 1 -0.028940625 -0.00125 -0.004134375 0.0199375341518
177 1 -0.028940625 -0.00125 -0.002953125 0.01386971523
178 1 -0.028940625 -0.00125 -0.001771875 0.21372123369
179 1 -0.028940625 -0.00125 -0.000590625 0.107179852095
180 1 -0.028940625 -0.00125 0.000590625 0.14929428164
181 1 -0.028940625 -0.00125 0.001771875 0.0827704828178
182 1 -0.028940625 -0.00125 0.002953125 0.241806863156
183 1 -0.028940625 -0.00125 0.004134375 0.281290770421
184 1 -0.028940625 -0.00125 0.005315625 0.175758979902
185 1 -0.028940625 -0.00125 0.006496875 0.0187026692579
186 1 -0.028940625 -0.00125 0.007678125 0.303423296049
187 1 -0.028940625 -0.00125 0.008859375 0.453010380117
188 1 -0.028940625 -0.00125 0.010040625 0.133535038668
189 1 -0.028940625 -0.00125 0.011221875 0.00154812961495
190 1 -0.028940625 -0.00125 0.012403125 0.0
191 1 -0.028940625 -0.00125 0.013584375 0.0
192 1 -0.028940625 -0.00125 0.014765625 0.0
193 1 -0.028940625 -0.00125 0.015946875 1.74019667629e-11
194 1 -0.028940625 -0.00125 0.017128125 0.000126658700522
195 1 -0.028940625 -0.00125 0.018309375 1.74019667629e-11
196 1 -0.028940625 -0.00125 0.019490625 1.28754471296e-08
197 1 -0.028940625 -0.00125 0.020671875 0.000245540111831
198 1 -0.028940625 -0.00125 0.021853125 0.00466864259094
199 1 -0.027759375 -0.00125 -0.024215625 0.0
200 1 -0.027759375 -0.00125 -0.023034375 0.00106278235535
201 1 -0.027759375 -0.00125 -0.021853125 0.0394161020542
202 1 -0.027759375 -0.00125 -0.020671875 0.00154813293271
203 1 -0.027759375 -0.00125 -0.019490625 0.00284458672872
204 1 -0.027759375 -0.00125 -0.018309375 0.0698876476892
205 1 -0.027759375 -0.00125 -0.017128125 0.241806863156
206 1 -0.027759375 -0.00125 -0.015946875 0.133535038668
207 1 -0.027759375 -0.00125 -0.014765625 0.0138696939255
208 1 -0.027759375 -0.00125 -0.013584375 0.0187026692579
209 1 -0.027759375 -0.00125 -0.012403125 0.0778403180889
210 1 -0.027759375 -0.00125 -0.011221875 0.000891017573599
211 1 -0.027759375 -0.00125 -0.010040625 0.0293069007767
212 1 -0.027759375 -0.00125 -0.008859375 0.114532114604
213 1 -0.027759375 -0.00125 -0.007678125 0.17575893658
214 1 -0.027759375 -0.00125 -0.006496875 0.236372108528
215 1 -0.027759375 -0.00125 -0.005315625 0.21372123369
216 1 -0.027759375 -0.00125 -0.004134375 0.21372123369
217 1 -0.027759375 -0.00125 -0.002953125 0.203051971158
218 1 -0.027759375 -0.00125 -0.001771875 0.0778403011007
219 1 -0.027759375 -0.00125 -0.000590625 3.07880835211e-05
220 1 -0.027759375 -0.00125 0.000590625 0.114532114604
221 1 -0.027759375 -0.00125 0.001771875 0.0999860491522
222 1 -0.027759375 -0.00125 0.002953125 0.0243767952624
223 1 -0.027759375 -0.00125 0.004134375 0.0243767756543
224 1 -0.027759375 -0.00125 0.005315625 0.0443323240644
225 1 -0.027759375 -0.00125 0.006496875 0.00855159585878
226 1 -0.027759375 -0.00125 0.007678125 0.263674497482
227 1 -0.027759375 -0.00125 0.008859375 0.482099221396
228 1 -0.027759375 -0.00125 0.010040625 0.343471904739
229 1 -0.027759375 -0.00125 0.011221875 0.00668182974929
230 1 -0.027759375 -0.00125 0.012403125 1.74019667629e-11
231 1 -0.027759375 -0.00125 0.013584375 0.0
232 1 -0.027759375 -0.00125 0.014765625 1.74019667629e-11
233 1 -0.027759375 -0.00125 0.015946875 0.000126658700522
234 1 -0.027759375 -0.00125 0.017128125 0.00154813293271
235 1 -0.027759375 -0.00125 0.018309375 0.0138696939255
236 1 -0.027759375 -0.00125 0.019490625 0.00284458672872
237 1 -0.027759375 -0.00125 0.020671875 0.000891023127979
238 1 -0.027759375 -0.00125 0.021853125 0.0328185601249
239 1 -0.027759375 -0.00125 0.023034375 0.00106278235535
240 1 -0.027759375 -0.00125 0.024215625 0.0
241 1 -0.026578125 -0.00125 -0.026578125 0.0
242 1 -0.026578125 -0.00125 -0.025396875 0.0
243 1 -0.026578125 -0.00125 -0.024215625 0.0
244 1 -0.026578125 -0.00125 -0.023034375 6.01557630165e-07
245 1 -0.026578125 -0.00125 -0.021853125 0.000535662176186
246 1 -0.026578125 -0.00125 -0.020671875 1.74019667629e-11
247 1 -0.026578125 -0.00125 -0.019490625 0.00518996254239
248 1 -0.026578125 -0.00125 -0.018309375 0.036431516761
249 1 -0.026578125 -0.00125 -0.017128125 0.31785993773
250 1 -0.026578125 -0.00125 -0.015946875 0.306751493137
251 1 -0.026578125 -0.00125 -0.014765625 0.022993007656
252 1 -0.026578125 -0.00125 -0.013584375 1.74019667629e-11
253 1 -0.026578125 -0.00125 -0.012403125 0.0
254 1 -0.026578125 -0.00125 -0.011221875 1.74014005978e-11
255 1 -0.026578125 -0.00125 -0.010040625 0.00228020850123
256 1 -0.026578125 -0.00125 -0.008859375 0.00474645121499
257 1 -0.026578125 -0.00125 -0.007678125 0.0207856943371
258 1 -0.026578125 -0.00125 -0.006496875 0.00615712164785
259 1 -0.026578125 -0.00125 -0.005315625 0.00668182974929
260 1 -0.026578125 -0.00125 -0.004134375 0.00668182524144
261 1 -0.026578125 -0.00125 -0.002953125 0.00154812546777
262 1 -0.026578125 -0.00125 -0.001771875 1.28754471296e-08
263 1 -0.026578125 -0.00125 -0.000590625 0.0
264 1 -0.026578125 -0.00125 0.000590625 0.0
265 1 -0.026578125 -0.00125 0.001771875 0.0
266 1 -0.026578125 -0.00125 0.002953125 0.0
267 1 -0.026578125 -0.00125 0.004134375 2.79378975481e-22
268 1 -0.026578125 -0.00125 0.005315625 1.77729209249e-06
269 1 -0.026578125 -0.00125 0.006496875 0.0218738441968
270 1 -0.026578125 -0.00125 0.007678125 0.447416694397
271 1 -0.026578125 -0.00125 0.008859375 0.560414611067
272 1 -0.026578125 -0.00125 0.010040625 0.229870478076
273 1 -0.026578125 -0.00125 0.011221875 1.77729209249e-06
274 1 -0.026578125 -0.00125 0.012403125 0.0
275 1 -0.026578125 -0.00125 0.013584375 5.83927160305e-06
276 1 -0.026578125 -0.00125 0.014765625 0.0167441751181
277 1 -0.026578125 -0.00125 0.015946875 0.039380514317
278 1 -0.026578125 -0.00125 0.017128125 0.0267810609157
279 1 -0.026578125 -0.00125 0.018309375 0.0138697507376
280 1 -0.026578125 -0.00125 0.019490625 6.56188178133e-05
281 1 -0.026578125 -0.00125 0.020671875 1.28754471296e-08
282 1 -0.026578125 -0.00125 0.021853125 1.28754471296e-08
283 1 -0.026578125 -0.00125 0.023034375 1.28754471296e-08
284 1 -0.026578125 -0.00125 0.024215625 0.0
285 1 -0.026578125 -0.00125 0.025396875 0.0
286 1 -0.026578125 -0.00125 0.026578125 0.0
287 1 -0.025396875 -0.00125 -0.026578125 0.0
288 1 -0.025396875 -0.00125 -0.025396875 0.000126658700522
289 1 -0.025396875 -0.00125 -0.024215625 0.000126658700522
290 1 -0.025396875 -0.00125 -0.023034375 0.00154813293271
291 1 -0.025396875 -0.00125 -0.021853125 0.000126658700522
292 1 -0.025396875 -0.00125 -0.020671875 0.000126657572948
293 1 -0.025396875 -0.00125 -0.019490625 0.00118682600863
294 1 -0.025396875 -0.00125 -0.018309375 0.0243767756543
295 1 -0.025396875 -0.00125 -0.017128125 0.332326556717
296 1 -0.025396875 -0.00125 -0.015946875 0.303423296049
297 1 -0.025396875 -0.00125 -0.014765625 0.00154812961495
298 1 -0.025396875 -0.00125 -0.013584375 0.0
299 1 -0.025396875 -0.00125 -0.012403125 0.0
300 1 -0.025396875 -0.00125 -0.011221875 0.0
301 1 -0.025396875 -0.00125 -0.010040625 0.0
302 1 -0.025396875 -0.00125 -0.008859375 0.0
303 1 -0.025396875 -0.00125 -0.007678125 0.0
304 1 -0.025396875 -0.00125 -0.006496875 2.79378975481e-22
305 1 -0.025396875 -0.00125 -0.005315625 0.0
306 1 -0.025396875 -0.00125 -0.004134375 0.0
307 1 -0.025396875 -0.00125 -0.002953125 0.0
308 1 -0.025396875 -0.00125 -0.001771875 0.0
309 1 -0.025396875 -0.00125 -0.000590625 1.22156214432e-15
310 1 -0.025396875 -0.00125 0.000590625 6.01557630165e-07
311 1 -0.025396875 -0.00125 0.001771875 6.01557630165e-07
312 1 -0.025396875 -0.00125 0.002953125 1.74019667629e-11
313 1 -0.025396875 -0.00125 0.004134375 0.0
314 1 -0.025396875 -0.00125 0.005315625 1.74019667629e-11
315 1 -0.025396875 -0.00125 0.006496875 0.0229930171508
316 1 -0.025396875 -0.00125 0.007678125 0.638675411355
317 1 -0.025396875 -0.00125 0.008859375 0.638674944179
318 1 -0.025396875 -0.00125 0.010040625 0.0999860491522
319 1 -0.025396875 -0.00125 0.011221875 6.01557630165e-07
320 1 -0.025396875 -0.00125 0.012403125 0.000126658700522
321 1 -0.025396875 -0.00125 0.013584375 0.0267810609157
322 1 -0.025396875 -0.00125 0.014765625 0.0138696939255
323 1 -0.025396875 -0.00125 0.015946875 0.000891017573599
324 1 -0.025396875 -0.00125 0.017128125 0.000126657572948
325 1 -0.025396875 -0.00125 0.018309375 0.000126658700522
326 1 -0.025396875 -0.00125 0.019490625 2.79378975481e-22
327 1 -0.025396875 -0.00125 0.020671875 0.0
328 1 -0.025396875 -0.00125 0.021853125 0.0
329 1 -0.025396875 -0.00125 0.023034375 0.0
330 1 -0.025396875 -0.00125 0.024215625 0.0
331 1 -0.025396875 -0.00125 0.025396875 0.0
332 1 -0.025396875 -0.00125 0.026578125 0.0
333 1 -0.024215625 -0.00125 -0.027759375 0.0
334 1 -0.024215625 -0.00125 -0.026578125 1.28754471296e-08
335 1 -0.024215625 -0.00125 -0.025396875 0.00474645121499
336 1 -0.024215625 -0.00125 -0.024215625 0.00154813293271
337 1 -0.024215625 -0.00125 -0.023034375 0.0443322841124
338 1 -0.024215625 -0.00125 -0.021853125 0.159358746116
339 1 -0.024215625 -0.00125 -0.020671875 0.0698876476892
340 1 -0.024215625 -0.00125 -0.019490625 0.00474647822937
341 1 -0.024215625 -0.00125 -0.018309375 0.000126658700522
342 1 -0.024215625 -0.00125 -0.017128125 0.14929428164
343 1 -0.024215625 -0.00125 -0.015946875 0.21372123369
344 1 -0.024215625 -0.00125 -0.014765625 0.000299132858986
345 1 -0.024215625 -0.00125 -0.013584375 2.79378975481e-22
346 1 -0.024215625 -0.00125 -0.012403125 0.0
347 1 -0.024215625 -0.00125 -0.011221875 0.0
348 1 -0.024215625 -0.00125 -0.010040625 0.0
349 1 -0.024215625 -0.00125 -0.008859375 0.0
350 1 -0.024215625 -0.00125 -0.007678125 0.0
351 1 -0.024215625 -0.00125 -0.006496875 1.5838087899e-05
352 1 -0.024215625 -0.00125 -0.005315625 0.000891023127979
353 1 -0.024215625 -0.00125 -0.004134375 6.01557630165e-07
354 1 -0.024215625 -0.00125 -0.002953125 6.01557630165e-07
355 1 -0.024215625 -0.00125 -0.001771875 1.74019667629e-11
356 1 -0.024215625 -0.00125 -0.000590625 0.000126658199377
357 1 -0.024215625 -0.00125 0.000590625 0.01386971523
358 1 -0.024215625 -0.00125 0.001771875 0.0999860863438
359 1 -0.024215625 -0.00125 0.002953125 0.0622852805866
360 1 -0.024215625 -0.00125 0.004134375 0.0622852495443
361 1 -0.024215625 -0.00125 0.005315625 0.0107214510125
362 1 -0.024215625 -0.00125 0.006496875 0.0529662928778
363 1 -0.024215625 -0.00125 0.007678125 0.775530217004
364 1 -0.024215625 -0.00125 0.008859375 0.569364093285
365 1 -0.024215625 -0.00125 0.010040625 0.14929428164
366 1 -0.024215625 -0.00125 0.011221875 0.00474645121499
367 1 -0.024215625 -0.00125 0.012403125 0.01386971523
368 1 -0.024215625 -0.00125 0.013584375 0.0138696939255
369 1 -0.024215625 -0.00125 0.014765625 0.00474645121499
370 1 -0.024215625 -0.00125 0.015946875 0.00154813293271
371 1 -0.024215625 -0.00125 0.017128125 0.00474645121499
372 1 -0.024215625 -0.00125 0.018309375 0.0138696939255
373 1 -0.024215625 -0.00125 0.019490625 1.77729209249e-06
374 1 -0.024215625 -0.00125 0.020671875 0.0
375 1 -0.024215625 -0.00125 0.021853125 0.0
376 1 -0.024215625 -0.00125 0.023034375 1.74019667629e-11
377 1 -0.024215625 -0.00125 0.024215625 6.01557630165e-07
378 1 -0.024215625 -0.00125 0.025396875 6.01557630165e-07
379 1 -0.024215625 -0.00125 0.026578125 2.79378975481e-22
380 1 -0.024215625 -0.00125 0.027759375 0.0
381 1 -0.023034375 -0.00125 -0.027759375 5.44412977554e-09
382 1 -0.023034375 -0.00125 -0.026578125 3.14925560351e-13
383 1 -0.023034375 -0.00125 -0.025396875 0.0138696939255
384 1 -0.023034375 -0.00125 -0.024215625 0.0138696939255
385 1 -0.023034375 -0.00125 -0.023034375 0.0138696939255
386 1 -0.023034375 -0.00125 -0.021853125 0.0698876476892
387 1 -0.023034375 -0.00125 -0.020671875 0.159358746116
388 1 -0.023034375 -0.00125 -0.019490625 0.0698874686089
389 1 -0.023034375 -0.00125 -0.018309375 0.000126658700522
390 1 -0.023034375 -0.00125 -0.017128125 0.0999860491522
391 1 -0.023034375 -0.00125 -0.015946875 0.522376508072
392 1 -0.023034375 -0.00125 -0.014765625 0.0443322841124
393 1 -0.023034375 -0.00125 -0.013584375 0.0167442544563
394 1 -0.023034375 -0.00125 -0.012403125 0.0107214510125
395 1 -0.023034375 -0.00125 -0.011221875 6.01557630165e-07
396 1 -0.023034375 -0.00125 -0.010040625 0.00474645121499
397 1 -0.023034375 -0.00125 -0.008859375 0.00474645121499
398 1 -0.023034375 -0.00125 -0.007678125 0.00474645121499
399 1 -0.023034375 -0.00125 -0.006496875 0.0999862723017
400 1 -0.023034375 -0.00125 -0.005315625 0.114532075754
401 1 -0.023034375 -0.00125 -0.004134375 0.0509111013046
402 1 -0.023034375 -0.00125 -0.002953125 0.0381872649833
403 1 -0.023034375 -0.00125 -0.001771875 0.0698876476892
404 1 -0.023034375 -0.00125 -0.000590625 0.119202725418
405 1 -0.023034375 -0.00125 0.000590625 0.149294323427
406 1 -0.023034375 -0.00125 0.001771875 0.114532075754
407 1 -0.023034375 -0.00125 0.002953125 0.14929428164
408 1 -0.023034375 -0.00125 0.004134375 0.14929428164
409 1 -0.023034375 -0.00125 0.005315625 0.149294365213
410 1 -0.023034375 -0.00125 0.006496875 0.0187026692579
411 1 -0.023034375 -0.00125 0.007678125 0.580549910179
412 1 -0.023034375 -0.00125 0.008859375 0.529089062167
413 1 -0.023034375 -0.00125 0.010040625 0.175758893257
414 1 -0.023034375 -0.00125 0.011221875 0.0509111013046
415 1 -0.023034375 -0.00125 0.012403125 0.0138696939255
416 1 -0.023034375 -0.00125 0.013584375 0.0138696939255
417 1 -0.023034375 -0.00125 0.014765625 0.0138696939255
418 1 -0.023034375 -0.00125 0.015946875 0.00474645121499
419 1 -0.023034375 -0.00125 0.017128125 0.0138696939255
420 1 -0.023034375 -0.00125 0.018309375 0.0698876476892
421 1 -0.023034375 -0.00125 0.019490625 0.123928325831
422 1 -0.023034375 -0.00125 0.020671875 0.091233852548
423 1 -0.023034375 -0.00125 0.021853125 0.091233852548
424 1 -0.023034375 -0.00125 0.023034375 0.123928325831
425 1 -0.023034375 -0.00125 0.024215625 0.186171540908
426 1 -0.023034375 -0.00125 0.025396875 0.175758893257
427 1 -0.023034375 -0.00125 0.026578125 0.00284458672872
428 1 -0.023034375 -0.00125 0.027759375 0.0237387238059
429 1 -0.021853125 -0.00125 -0.028940625 2.52587523623e-07
430 1 -0.021853125 -0.00125 -0.027759375 0.0
431 1 -0.021853125 -0.00125 -0.026578125 1.77731074088e-06
432 1 -0.021853125 -0.00125 -0.025396875 0.000126658700522
433 1 -0.021853125 -0.00125 -0.024215625 0.0138696939255
434 1 -0.021853125 -0.00125 -0.023034375 0.00474645121499
435 1 -0.021853125 -0.00125 -0.021853125 0.0138696939255
436 1 -0.021853125 -0.00125 -0.020671875 0.0698876476892
437 1 -0.021853125 -0.00125 -0.019490625 0.238544459553
438 1 -0.021853125 -0.00125 -0.018309375 0.0138696939255
439 1 -0.021853125 -0.00125 -0.017128125 0.179909996664
440 1 -0.021853125 -0.00125 -0.015946875 0.796948028842
441 1 -0.021853125 -0.00125 -0.014765625 0.123928325831
442 1 -0.021853125 -0.00125 -0.013584375 0.312303395346
443 1 -0.021853125 -0.00125 -0.012403125 0.343471904739
444 1 -0.021853125 -0.00125 -0.011221875 0.186171540908
445 1 -0.021853125 -0.00125 -0.010040625 0.368025128148
446 1 -0.021853125 -0.00125 -0.008859375 0.252716464147
447 1 -0.021853125 -0.00125 -0.007678125 0.292343226566
448 1 -0.021853125 -0.00125 -0.006496875 0.34458657622
449 1 -0.021853125 -0.00125 -0.005315625 0.224469737872
450 1 -0.021853125 -0.00125 -0.004134375 0.252716464147
451 1 -0.021853125 -0.00125 -0.002953125 0.281290216208
452 1 -0.021853125 -0.00125 -0.001771875 0.408265146751
453 1 -0.021853125 -0.00125 -0.000590625 0.364674521486
454 1 -0.021853125 -0.00125 0.000590625 0.21372123369
455 1 -0.021853125 -0.00125 0.001771875 0.0293069224194
456 1 -0.021853125 -0.00125 0.002953125 0.00474644221021
457 1 -0.021853125 -0.00125 0.004134375 0.0175126135393
458 1 -0.021853125 -0.00125 0.005315625 0.0175125891118
459 1 -0.021853125 -0.00125 0.006496875 0.036431516761
460 1 -0.021853125 -0.00125 0.007678125 0.186171540908
461 1 -0.021853125 -0.00125 0.008859375 0.0698876476892
462 1 -0.021853125 -0.00125 0.010040625 0.0698876476892
463 1 -0.021853125 -0.00125 0.011221875 0.0138696939255
464 1 -0.021853125 -0.00125 0.012403125 0.0138696939255
465 1 -0.021853125 -0.00125 0.013584375 0.0138696939255
466 1 -0.021853125 -0.00125 0.014765625 0.0138696939255
467 1 -0.021853125 -0.00125 0.015946875 0.123928325831
468 1 -0.021853125 -0.00125 0.017128125 0.263674497482
469 1 -0.021853125 -0.00125 0.018309375 0.3791971081
470 1 -0.021853125 -0.00125 0.019490625 0.31785993773
471 1 -0.021853125 -0.00125 0.020671875 0.123928325831
472 1 -0.021853125 -0.00125 0.021853125 0.091233852548
473 1 -0.021853125 -0.00125 0.023034375 0.091233852548
474 1 -0.021853125 -0.00125 0.024215625 0.091233852548
475 1 -0.021853125 -0.00125 0.025396875 0.091233852548
476 1 -0.021853125 -0.00125 0.026578125 0.0364314804587
477 1 -0.021853125 -0.00125 0.027759375 0.150411393909
478 1 -0.021853125 -0.00125 0.028940625 0.00466864259094
479 1 -0.020671875 -0.00125 -0.030121875 2.52587523623e-07
480 1 -0.020671875 -0.00125 -0.028940625 1.18026294841e-10
481 1 -0.020671875 -0.00125 -0.027759375 0.000126658700522
482 1 -0.020671875 -0.00125 -0.026578125 3.14925560351e-13
483 1 -0.020671875 -0.00125 -0.025396875 0.000126658700522
484 1 -0.020671875 -0.00125 -0.024215625 0.00474645121499
485 1 -0.020671875 -0.00125 -0.023034375 0.00154813293271
486 1 -0.020671875 -0.00125 -0.021853125 0.0138696939255
487 1 -0.020671875 -0.00125 -0.020671875 0.00474645121499
488 1 -0.020671875 -0.00125 -0.019490625 0.199867928267
489 1 -0.020671875 -0.00125 -0.018309375 0.196692230435
490 1 -0.020671875 -0.00125 -0.017128125 0.091233852548
491 1 -0.020671875 -0.00125 -0.015946875 0.522376508072
492 1 -0.020671875 -0.00125 -0.014765625 0.303422785529
493 1 -0.020671875 -0.00125 -0.013584375 0.159358915832
494 1 -0.020671875 -0.00125 -0.012403125 0.529089062167
495 1 -0.020671875 -0.00125 -0.011221875 0.292342717184
496 1 -0.020671875 -0.00125 -0.010040625 0.224469737872
497 1 -0.020671875 -0.00125 -0.008859375 0.441823107051
498 1 -0.020671875 -0.00125 -0.007678125 0.522376508072
499 1 -0.020671875 -0.00125 -0.006496875 0.375844969653
500 1 -0.020671875 -0.00125 -0.005315625 0.343471904739
501 1 -0.020671875 -0.00125 -0.004134375 0.241806908695
502 1 -0.020671875 -0.00125 -0.002953125 0.372493358291
503 1 -0.020671875 -0.00125 -0.001771875 0.274673256093
504 1 -0.020671875 -0.00125 -0.000590625 0.312303395346
505 1 -0.020671875 -0.00125 0.000590625 0.430635859907
506 1 -0.020671875 -0.00125 0.001771875 0.123928325831
507 1 -0.020671875 -0.00125 0.002953125 0.0622852495443
508 1 -0.020671875 -0.00125 0.004134375 0.0509111013046
509 1 -0.020671875 -0.00125 0.005315625 0.0347170407724
510 1 -0.020671875 -0.00125 0.006496875 0.172658646747
511 1 -0.020671875 -0.00125 0.007678125 0.252716464147
512 1 -0.020671875 -0.00125 0.008859375 0.0107214510125
513 1 -0.020671875 -0.00125 0.010040625 0.0698876476892
514 1 -0.020671875 -0.00125 0.011221875 0.0138696939255
515 1 -0.020671875 -0.00125 0.012403125 0.0138696939255
516 1 -0.020671875 -0.00125 0.013584375 0.0138696939255
517 1 -0.020671875 -0.00125 0.014765625 0.159358746116
518 1 -0.020671875 -0.00125 0.015946875 0.31008152194
519 1 -0.020671875 -0.00125 0.017128125 0.091233852548
520 1 -0.020671875 -0.00125 0.018309375 0.0698876476892
521 1 -0.020671875 -0.00125 0.019490625 0.095575355231
522 1 -0.020671875 -0.00125 0.020671875 4.52220221462e-06
523 1 -0.020671875 -0.00125 0.021853125 0.0
524 1 -0.020671875 -0.00125 0.023034375 0.0
525 1 -0.020671875 -0.00125 0.024215625 0.0
526 1 -0.020671875 -0.00125 0.025396875 0.0
527 1 -0.020671875 -0.00125 0.026578125 0.0
528 1 -0.020671875 -0.00125 0.027759375 0.000126658700522
529 1 -0.020671875 -0.00125 0.028940625 0.0
530 1 -0.020671875 -0.00125 0.030121875 0.0
531 1 -0.019490625 -0.00125 -0.031303125 0.000114485899769
532 1 -0.019490625 -0.00125 -0.030121875 0.00453693160015
533 1 -0.019490625 -0.00125 -0.028940625 0.0412042250543
534 1 -0.019490625 -0.00125 -0.027759375 0.00734859258327
535 1 -0.019490625 -0.00125 -0.026578125 4.96857640665e-05
536 1 -0.019490625 -0.00125 -0.025396875 0.00474647822937
537 1 -0.019490625 -0.00125 -0.024215625 0.00565998798415
538 1 -0.019490625 -0.00125 -0.023034375 0.0293069115981
539 1 -0.019490625 -0.00125 -0.021853125 0.0802910104399
540 1 -0.019490625 -0.00125 -0.020671875 0.0698875988491
541 1 -0.019490625 -0.00125 -0.019490625 0.0630290917275
542 1 -0.019490625 -0.00125 -0.018309375 0.286813049125
543 1 -0.019490625 -0.00125 -0.017128125 0.31785993773
544 1 -0.019490625 -0.00125 -0.015946875 0.554821025648
545 1 -0.019490625 -0.00125 -0.014765625 0.315636728068
546 1 -0.019490625 -0.00125 -0.013584375 0.302313817459
547 1 -0.019490625 -0.00125 -0.012403125 0.629740855681
548 1 -0.019490625 -0.00125 -0.011221875 0.01386971523
549 1 -0.019490625 -0.00125 -0.010040625 0.00198208350256