ITEM: TIMESTEP
0
ITEM: NUMBER OF ATOMS
3080
ITEM: BOX BOUNDS ss ss ss
-3.7007399999999996e-02 3.7007399999999996e-02
-2.0002499999999999e-03 2.5000000000000004e-07
-3.7007399999999996e-02 3.7007399999999996e-02
ITEM: ATOMS id type x y z c_1
0 1 -0.037209375 -0.00125 -0.000590625 0.0418564289367
1 1 -0.036028125 -0.00125 -0.007678125 0.0
2 1 -0.036028125 -0.00125 -0.006496875 0.0
3 1 -0.036028125 -0.00125 -0.005315625 0.0
4 1 -0.036028125 -0.00125 -0.004134375 0.0
5 1 -0.036028125 -0.00125 -0.002953125 3.70458005324e-08
6 1 -0.036028125 -0.00125 -0.001771875 0.188267174204
7 1 -0.036028125 -0.00125 -0.000590625 0.0318508250802
8 1 -0.036028125 -0.00125 0.000590625 0.372876626419
9 1 -0.036028125 -0.00125 0.001771875 0.226627684957
10 1 -0.036028125 -0.00125 0.002953125 3.70458005324e-08
11 1 -0.036028125 -0.00125 0.004134375 0.0
12 1 -0.036028125 -0.00125 0.005315625 0.0
13 1 -0.036028125 -0.00125 0.006496875 0.0
14 1 -0.036028125 -0.00125 0.007678125 0.00920066229086
15 1 -0.034846875 -0.00125 -0.011221875 0.0
16 1 -0.034846875 -0.00125 -0.010040625 0.0
17 1 -0.034846875 -0.00125 -0.008859375 0.0
18 1 -0.034846875 -0.00125 -0.007678125 0.0
19 1 -0.034846875 -0.00125 -0.006496875 0.0
20 1 -0.034846875 -0.00125 -0.005315625 0.0
21 1 -0.034846875 -0.00125 -0.004134375 1.74019667629e-11
22 1 -0.034846875 -0.00125 -0.002953125 4.52220221462e-06
23 1 -0.034846875 -0.00125 -0.001771875 0.00154813293271
24 1 -0.034846875 -0.00125 -0.000590625 0.0187026438913
25 1 -0.034846875 -0.00125 0.000590625 0.361324541927
26 1 -0.034846875 -0.00125 0.001771875 0.123928325831
27 1 -0.034846875 -0.00125 0.002953125 0.000891017573599
28 1 -0.034846875 -0.00125 0.004134375 1.74019667629e-11
29 1 -0.034846875 -0.00125 0.005315625 0.0
30 1 -0.034846875 -0.00125 0.006496875 7.02299466978e-08
31 1 -0.034846875 -0.00125 0.007678125 0.123537956966
32 1 -0.034846875 -0.00125 0.008859375 0.357943617791
33 1 -0.034846875 -0.00125 0.010040625 0.0125514801558
34 1 -0.034846875 -0.00125 0.011221875 0.00920066229086
35 1 -0.033665625 -0.00125 -0.013584375 0.0
36 1 -0.033665625 -0.00125 -0.012403125 0.0
37 1 -0.033665625 -0.00125 -0.011221875 0.0
38 1 -0.033665625 -0.00125 -0.010040625 0.0
39 1 -0.033665625 -0.00125 -0.008859375 0.0
40 1 -0.033665625 -0.00125 -0.007678125 0.0
41 1 -0.033665625 -0.00125 -0.006496875 0.0
42 1 -0.033665625 -0.00125 -0.005315625 0.0
43 1 -0.033665625 -0.00125 -0.004134375 4.52220221462e-06
44 1 -0.033665625 -0.00125 -0.002953125 0.000299131636816
45 1 -0.033665625 -0.00125 -0.001771875 0.00154813293271
46 1 -0.033665625 -0.00125 -0.000590625 0.0335972786663
47 1 -0.033665625 -0.00125 0.000590625 0.321195978177
48 1 -0.033665625 -0.00125 0.001771875 0.0622852805866
49 1 -0.033665625 -0.00125 0.002953125 0.000891023127979
50 1 -0.033665625 -0.00125 0.004134375 0.0
51 1 -0.033665625 -0.00125 0.005315625 0.0
52 1 -0.033665625 -0.00125 0.006496875 1.77728463318e-06
53 1 -0.033665625 -0.00125 0.007678125 0.0912339065983
54 1 -0.033665625 -0.00125 0.008859375 0.159358746116
55 1 -0.033665625 -0.00125 0.010040625 0.0243767952624
56 1 -0.033665625 -0.00125 0.011221875 0.112788508618
57 1 -0.033665625 -0.00125 0.012403125 0.320687946562
58 1 -0.033665625 -0.00125 0.013584375 0.0
59 1 -0.032484375 -0.00125 -0.018309375 0.00920066229086
60 1 -0.032484375 -0.00125 -0.017128125 0.0075399670332
61 1 -0.032484375 -0.00125 -0.015946875 0.00590674997293
62 1 -0.032484375 -0.00125 -0.014765625 0.0204076826102
63 1 -0.032484375 -0.00125 -0.013584375 7.69889191198e-05
64 1 -0.032484375 -0.00125 -0.012403125 0.0
65 1 -0.032484375 -0.00125 -0.011221875 2.79378975481e-22
66 1 -0.032484375 -0.00125 -0.010040625 0.0
67 1 -0.032484375 -0.00125 -0.008859375 0.0
68 1 -0.032484375 -0.00125 -0.007678125 0.0
69 1 -0.032484375 -0.00125 -0.006496875 0.0
70 1 -0.032484375 -0.00125 -0.005315625 0.0
71 1 -0.032484375 -0.00125 -0.004134375 1.74014005978e-11
72 1 -0.032484375 -0.00125 -0.002953125 7.02299466978e-08
73 1 -0.032484375 -0.00125 -0.001771875 2.79378975481e-22
74 1 -0.032484375 -0.00125 -0.000590625 0.179650294617
75 1 -0.032484375 -0.00125 0.000590625 0.308971862494
76 1 -0.032484375 -0.00125 0.001771875 0.0085515641959
77 1 -0.032484375 -0.00125 0.002953125 1.18026294841e-10
78 1 -0.032484375 -0.00125 0.004134375 0.0
79 1 -0.032484375 -0.00125 0.005315625 0.0
80 1 -0.032484375 -0.00125 0.006496875 7.49709589486e-44
81 1 -0.032484375 -0.00125 0.007678125 0.0564721843312
82 1 -0.032484375 -0.00125 0.008859375 0.3791971081
83 1 -0.032484375 -0.00125 0.010040625 0.0660411189129
84 1 -0.032484375 -0.00125 0.011221875 0.114532114604
85 1 -0.032484375 -0.00125 0.012403125 0.0529663217973
86 1 -0.032484375 -0.00125 0.013584375 3.16634053105e-10
87 1 -0.032484375 -0.00125 0.014765625 0.0
88 1 -0.032484375 -0.00125 0.015946875 2.56728544141e-12
89 1 -0.032484375 -0.00125 0.017128125 0.0075399670332
90 1 -0.032484375 -0.00125 0.018309375 0.00920066229086
91 1 -0.031303125 -0.00125 -0.019490625 8.50218305249e-07
92 1 -0.031303125 -0.00125 -0.018309375 1.18571432312e-05
93 1 -0.031303125 -0.00125 -0.017128125 0.0
94 1 -0.031303125 -0.00125 -0.015946875 1.22156214432e-15
95 1 -0.031303125 -0.00125 -0.014765625 0.0138696939255
96 1 -0.031303125 -0.00125 -0.013584375 0.0529662928778
97 1 -0.031303125 -0.00125 -0.012403125 0.00249557865471
98 1 -0.031303125 -0.00125 -0.011221875 0.000126657572948
99 1 -0.031303125 -0.00125 -0.010040625 0.0
100 1 -0.031303125 -0.00125 -0.008859375 0.0
101 1 -0.031303125 -0.00125 -0.007678125 0.0
102 1 -0.031303125 -0.00125 -0.006496875 0.0
103 1 -0.031303125 -0.00125 -0.005315625 0.0
104 1 -0.031303125 -0.00125 -0.004134375 0.0
105 1 -0.031303125 -0.00125 -0.002953125 0.0
106 1 -0.031303125 -0.00125 -0.001771875 0.000126658700522
107 1 -0.031303125 -0.00125 -0.000590625 0.277428924903
108 1 -0.031303125 -0.00125 0.000590625 0.109735429886
109 1 -0.031303125 -0.00125 0.001771875 4.52220221462e-06
110 1 -0.031303125 -0.00125 0.002953125 1.74019667629e-11
111 1 -0.031303125 -0.00125 0.004134375 0.0
112 1 -0.031303125 -0.00125 0.005315625 0.0
113 1 -0.031303125 -0.00125 0.006496875 2.79378975481e-22
114 1 -0.031303125 -0.00125 0.007678125 0.0778403180889
115 1 -0.031303125 -0.00125 0.008859375 0.390374014268
116 1 -0.031303125 -0.00125 0.010040625 0.321195978177
117 1 -0.031303125 -0.00125 0.011221875 0.0243767952624
118 1 -0.031303125 -0.00125 0.012403125 0.0443323240644
119 1 -0.031303125 -0.00125 0.013584375 1.28754471296e-08
120 1 -0.031303125 -0.00125 0.014765625 0.0
121 1 -0.031303125 -0.00125 0.015946875 0.0
122 1 -0.031303125 -0.00125 0.017128125 0.091233852548
123 1 -0.031303125 -0.00125 0.018309375 0.219782120575
124 1 -0.031303125 -0.00125 0.019490625 8.50218305249e-07
125 1 -0.030121875 -0.00125 -0.020671875 0.0
126 1 -0.030121875 -0.00125 -0.019490625 0.0
127 1 -0.030121875 -0.00125 -0.018309375 0.0
128 1 -0.030121875 -0.00125 -0.017128125 0.0
129 1 -0.030121875 -0.00125 -0.015946875 0.0
130 1 -0.030121875 -0.00125 -0.014765625 6.01557630165e-07
131 1 -0.030121875 -0.00125 -0.013584375 0.123928325831
132 1 -0.030121875 -0.00125 -0.012403125 0.0509111013046
133 1 -0.030121875 -0.00125 -0.011221875 0.000126657572948
134 1 -0.030121875 -0.00125 -0.010040625 0.0
135 1 -0.030121875 -0.00125 -0.008859375 0.0
136 1 -0.030121875 -0.00125 -0.007678125 0.0
137 1 -0.030121875 -0.00125 -0.006496875 0.0
138 1 -0.030121875 -0.00125 -0.005315625 0.0
139 1 -0.030121875 -0.00125 -0.004134375 0.0
140 1 -0.030121875 -0.00125 -0.002953125 0.0
141 1 -0.030121875 -0.00125 -0.001771875 0.0
142 1 -0.030121875 -0.00125 -0.000590625 0.133534957453
143 1 -0.030121875 -0.00125 0.000590625 0.0986557296701
144 1 -0.030121875 -0.00125 0.001771875 4.52220221462e-06
145 1 -0.030121875 -0.00125 0.002953125 1.74019667629e-11
146 1 -0.030121875 -0.00125 0.004134375 0.0
147 1 -0.030121875 -0.00125 0.005315625 0.0
148 1 -0.030121875 -0.00125 0.006496875 2.79378975481e-22
149 1 -0.030121875 -0.00125 0.007678125 6.01557630165e-07
150 1 -0.030121875 -0.00125 0.008859375 0.00154813293271
151 1 -0.030121875 -0.00125 0.010040625 0.091233852548
152 1 -0.030121875 -0.00125 0.011221875 0.0175126135393
153 1 -0.030121875 -0.00125 0.012403125 0.00154812961495
154 1 -0.030121875 -0.00125 0.013584375 0.0207856853608
155 1 -0.030121875 -0.00125 0.014765625 4.52220221462e-06
156 1 -0.030121875 -0.00125 0.015946875 6.01557630165e-07
157 1 -0.030121875 -0.00125 0.017128125 0.321195978177
158 1 -0.030121875 -0.00125 0.018309375 0.159358746116
159 1 -0.030121875 -0.00125 0.019490625 0.0
160 1 -0.030121875 -0.00125 0.020671875 0.0
161 1 -0.028940625 -0.00125 -0.021853125 0.00466864259094
162 1 -0.028940625 -0.00125 -0.020671875 1.61610918776e-06
163 1 -0.028940625 -0.00125 -0.019490625 0.0
164 1 -0.028940625 -0.00125 -0.018309375 0.0
165 1 -0.028940625 -0.00125 -0.017128125 0.0
166 1 -0.028940625 -0.00125 -0.015946875 1.74019667629e-11
167 1 -0.028940625 -0.00125 -0.014765625 6.01557630165e-07
168 1 -0.028940625 -0.00125 -0.013584375 0.107179814045
169 1 -0.028940625 -0.00125 -0.012403125 0.159358746116
170 1 -0.028940625 -0.00125 -0.011221875 0.00474645121499
171 1 -0.028940625 -0.00125 -0.010040625 0.000126658700522
172 1 -0.028940625 -0.00125 -0.008859375 0.000126658700522
173 1 -0.028940625 -0.00125 -0.007678125 1.74019667629e-11
174 1 -0.028940625 -0.00125 -0.006496875 2.79378975481e-22
175 1 -0.028940625 -0.00125 -0.005315625 0.0
176 1 -0.028940625 -0.00125 -0.004134375 0.0
177 1 -0.028940625 -0.00125 -0.002953125 0.0
178 1 -0.028940625 -0.00125 -0.001771875 0.0
179 1 -0.028940625 -0.00125 -0.000590625 0.0600766491627
180 1 -0.028940625 -0.00125 0.000590625 0.086119628518
181 1 -0.028940625 -0.00125 0.001771875 0.00249557400626
182 1 -0.028940625 -0.00125 0.002953125 1.74019667629e-11
183 1 -0.028940625 -0.00125 0.004134375 0.0
184 1 -0.028940625 -0.00125 0.005315625 0.0
185 1 -0.028940625 -0.00125 0.006496875 2.79378975481e-22
186 1 -0.028940625 -0.00125 0.007678125 1.74019667629e-11
187 1 -0.028940625 -0.00125 0.008859375 1.74019667629e-11
188 1 -0.028940625 -0.00125 0.010040625 0.000299132858986
189 1 -0.028940625 -0.00125 0.011221875 4.52220221462e-06
190 1 -0.028940625 -0.00125 0.012403125 6.01557630165e-07
191 1 -0.028940625 -0.00125 0.013584375 0.00474644581212
192 1 -0.028940625 -0.00125 0.014765625 4.52220221462e-06
193 1 -0.028940625 -0.00125 0.015946875 0.01386971523
194 1 -0.028940625 -0.00125 0.017128125 0.470910984646
195 1 -0.028940625 -0.00125 0.018309375 0.0698876476892
196 1 -0.028940625 -0.00125 0.019490625 0.0
197 1 -0.028940625 -0.00125 0.020671875 0.0
198 1 -0.028940625 -0.00125 0.021853125 2.52587523623e-07
199 1 -0.027759375 -0.00125 -0.024215625 0.0
200 1 -0.027759375 -0.00125 -0.023034375 0.00106278235535
201 1 -0.027759375 -0.00125 -0.021853125 0.00147479831613
202 1 -0.027759375 -0.00125 -0.020671875 0.000126658700522
203 1 -0.027759375 -0.00125 -0.019490625 2.79378975481e-22
204 1 -0.027759375 -0.00125 -0.018309375 0.0
205 1 -0.027759375 -0.00125 -0.017128125 0.0
206 1 -0.027759375 -0.00125 -0.015946875 0.0
207 1 -0.027759375 -0.00125 -0.014765625 4.52227625942e-06
208 1 -0.027759375 -0.00125 -0.013584375 0.275775319913
209 1 -0.027759375 -0.00125 -0.012403125 0.230952152116
210 1 -0.027759375 -0.00125 -0.011221875 0.165468748191
211 1 -0.027759375 -0.00125 -0.010040625 0.0999860491522
212 1 -0.027759375 -0.00125 -0.008859375 0.0778403180889
213 1 -0.027759375 -0.00125 -0.007678125 0.0912339065983
214 1 -0.027759375 -0.00125 -0.006496875 0.0982137222786
215 1 -0.027759375 -0.00125 -0.005315625 0.0443322841124
216 1 -0.027759375 -0.00125 -0.004134375 0.0199375166154
217 1 -0.027759375 -0.00125 -0.002953125 0.0243767756543
218 1 -0.027759375 -0.00125 -0.001771875 0.0138696939255
219 1 -0.027759375 -0.00125 -0.000590625 0.00668182974929
220 1 -0.027759375 -0.00125 0.000590625 0.00668184101894
221 1 -0.027759375 -0.00125 0.001771875 0.00154812961495
222 1 -0.027759375 -0.00125 0.002953125 4.52220221462e-06
223 1 -0.027759375 -0.00125 0.004134375 0.0
224 1 -0.027759375 -0.00125 0.005315625 0.0
225 1 -0.027759375 -0.00125 0.006496875 0.0
226 1 -0.027759375 -0.00125 0.007678125 0.0
227 1 -0.027759375 -0.00125 0.008859375 1.74019667629e-11
228 1 -0.027759375 -0.00125 0.010040625 0.0
229 1 -0.027759375 -0.00125 0.011221875 0.0
230 1 -0.027759375 -0.00125 0.012403125 0.0
231 1 -0.027759375 -0.00125 0.013584375 0.0
232 1 -0.027759375 -0.00125 0.014765625 0.0
233 1 -0.027759375 -0.00125 0.015946875 0.0622852495443
234 1 -0.027759375 -0.00125 0.017128125 0.430635345024
235 1 -0.027759375 -0.00125 0.018309375 0.0443322841124
236 1 -0.027759375 -0.00125 0.019490625 0.0
237 1 -0.027759375 -0.00125 0.020671875 0.0
238 1 -0.027759375 -0.00125 0.021853125 0.0
239 1 -0.027759375 -0.00125 0.023034375 5.44412977554e-09
240 1 -0.027759375 -0.00125 0.024215625 0.0
241 1 -0.026578125 -0.00125 -0.026578125 0.0
242 1 -0.026578125 -0.00125 -0.025396875 1.61610918776e-06
243 1 -0.026578125 -0.00125 -0.024215625 0.000178487785899
244 1 -0.026578125 -0.00125 -0.023034375 1.5838087899e-05
245 1 -0.026578125 -0.00125 -0.021853125 0.00154813293271
246 1 -0.026578125 -0.00125 -0.020671875 0.00284458672872
247 1 -0.026578125 -0.00125 -0.019490625 1.05578382748e-06
248 1 -0.026578125 -0.00125 -0.018309375 3.14925560351e-13
249 1 -0.026578125 -0.00125 -0.017128125 1.28754471296e-08
250 1 -0.026578125 -0.00125 -0.015946875 2.79378975481e-22
251 1 -0.026578125 -0.00125 -0.014765625 0.00025512755748
252 1 -0.026578125 -0.00125 -0.013584375 0.279634957543
253 1 -0.026578125 -0.00125 -0.012403125 0.0495616326201
254 1 -0.026578125 -0.00125 -0.011221875 0.066041103006
255 1 -0.026578125 -0.00125 -0.010040625 0.01386971523
256 1 -0.026578125 -0.00125 -0.008859375 1.28754471296e-08
257 1 -0.026578125 -0.00125 -0.007678125 0.00118683011771
258 1 -0.026578125 -0.00125 -0.006496875 0.00595498903367
259 1 -0.026578125 -0.00125 -0.005315625 0.0308802387238
260 1 -0.026578125 -0.00125 -0.004134375 0.0293069115981
261 1 -0.026578125 -0.00125 -0.002953125 0.00987189222788
262 1 -0.026578125 -0.00125 -0.001771875 0.00198208844631
263 1 -0.026578125 -0.00125 -0.000590625 2.03064276088e-08
264 1 -0.026578125 -0.00125 0.000590625 0.0
265 1 -0.026578125 -0.00125 0.001771875 2.79378975481e-22
266 1 -0.026578125 -0.00125 0.002953125 2.79378975481e-22
267 1 -0.026578125 -0.00125 0.004134375 0.0
268 1 -0.026578125 -0.00125 0.005315625 0.0
269 1 -0.026578125 -0.00125 0.006496875 0.0
270 1 -0.026578125 -0.00125 0.007678125 0.0
271 1 -0.026578125 -0.00125 0.008859375 0.0
272 1 -0.026578125 -0.00125 0.010040625 0.0
273 1 -0.026578125 -0.00125 0.011221875 0.0
274 1 -0.026578125 -0.00125 0.012403125 0.0
275 1 -0.026578125 -0.00125 0.013584375 0.0
276 1 -0.026578125 -0.00125 0.014765625 0.000126658199377
277 1 -0.026578125 -0.00125 0.015946875 0.247255498869
278 1 -0.026578125 -0.00125 0.017128125 0.450772858521
279 1 -0.026578125 -0.00125 0.018309375 0.036431516761
280 1 -0.026578125 -0.00125 0.019490625 7.69885813891e-05
281 1 -0.026578125 -0.00125 0.020671875 1.28754471296e-08
282 1 -0.026578125 -0.00125 0.021853125 0.0
283 1 -0.026578125 -0.00125 0.023034375 0.0
284 1 -0.026578125 -0.00125 0.024215625 0.0
285 1 -0.026578125 -0.00125 0.025396875 0.0
286 1 -0.026578125 -0.00125 0.026578125 0.0
287 1 -0.025396875 -0.00125 -0.026578125 6.42534788816e-29
288 1 -0.025396875 -0.00125 -0.025396875 0.000126658700522
289 1 -0.025396875 -0.00125 -0.024215625 0.00474645121499
290 1 -0.025396875 -0.00125 -0.023034375 0.000126658700522
291 1 -0.025396875 -0.00125 -0.021853125 0.0138696939255
292 1 -0.025396875 -0.00125 -0.020671875 0.0138696939255
293 1 -0.025396875 -0.00125 -0.019490625 0.0085515641959
294 1 -0.025396875 -0.00125 -0.018309375 0.00154813293271
295 1 -0.025396875 -0.00125 -0.017128125 0.000126658700522
296 1 -0.025396875 -0.00125 -0.015946875 0.0
297 1 -0.025396875 -0.00125 -0.014765625 0.00474645121499
298 1 -0.025396875 -0.00125 -0.013584375 0.30120489382
299 1 -0.025396875 -0.00125 -0.012403125 0.00154812961495
300 1 -0.025396875 -0.00125 -0.011221875 0.091233852548
301 1 -0.025396875 -0.00125 -0.010040625 0.00474645121499
302 1 -0.025396875 -0.00125 -0.008859375 0.0
303 1 -0.025396875 -0.00125 -0.007678125 0.0
304 1 -0.025396875 -0.00125 -0.006496875 0.0
305 1 -0.025396875 -0.00125 -0.005315625 1.74019667629e-11
306 1 -0.025396875 -0.00125 -0.004134375 0.0
307 1 -0.025396875 -0.00125 -0.002953125 0.0
308 1 -0.025396875 -0.00125 -0.001771875 0.0
309 1 -0.025396875 -0.00125 -0.000590625 0.0
310 1 -0.025396875 -0.00125 0.000590625 0.0
311 1 -0.025396875 -0.00125 0.001771875 0.0
312 1 -0.025396875 -0.00125 0.002953125 0.0
313 1 -0.025396875 -0.00125 0.004134375 0.0
314 1 -0.025396875 -0.00125 0.005315625 0.0
315 1 -0.025396875 -0.00125 0.006496875 0.0
316 1 -0.025396875 -0.00125 0.007678125 0.0
317 1 -0.025396875 -0.00125 0.008859375 1.22156214432e-15
318 1 -0.025396875 -0.00125 0.010040625 0.0
319 1 -0.025396875 -0.00125 0.011221875 0.0
320 1 -0.025396875 -0.00125 0.012403125 0.0
321 1 -0.025396875 -0.00125 0.013584375 0.0
322 1 -0.025396875 -0.00125 0.014765625 0.0243767952624
323 1 -0.025396875 -0.00125 0.015946875 0.558176892949
324 1 -0.025396875 -0.00125 0.017128125 0.453010895051
325 1 -0.025396875 -0.00125 0.018309375 0.0698876476892
326 1 -0.025396875 -0.00125 0.019490625 0.0
327 1 -0.025396875 -0.00125 0.020671875 0.0
328 1 -0.025396875 -0.00125 0.021853125 6.01557630165e-07
329 1 -0.025396875 -0.00125 0.023034375 0.000126658700522
330 1 -0.025396875 -0.00125 0.024215625 1.74019667629e-11
331 1 -0.025396875 -0.00125 0.025396875 6.01557630165e-07
332 1 -0.025396875 -0.00125 0.026578125 0.0
333 1 -0.024215625 -0.00125 -0.027759375 0.0
334 1 -0.024215625 -0.00125 -0.026578125 0.0
335 1 -0.024215625 -0.00125 -0.025396875 0.000126658700522
336 1 -0.024215625 -0.00125 -0.024215625 0.000126658700522
337 1 -0.024215625 -0.00125 -0.023034375 0.000126658700522
338 1 -0.024215625 -0.00125 -0.021853125 0.00154813293271
339 1 -0.024215625 -0.00125 -0.020671875 0.0138696939255
340 1 -0.024215625 -0.00125 -0.019490625 0.00565998798415
341 1 -0.024215625 -0.00125 -0.018309375 0.0293069007767
342 1 -0.024215625 -0.00125 -0.017128125 0.00154813293271
343 1 -0.024215625 -0.00125 -0.015946875 1.74019667629e-11
344 1 -0.024215625 -0.00125 -0.014765625 1.22156214432e-15
345 1 -0.024215625 -0.00125 -0.013584375 0.210511756665
346 1 -0.024215625 -0.00125 -0.012403125 4.52220221462e-06
347 1 -0.024215625 -0.00125 -0.011221875 0.01386971523
348 1 -0.024215625 -0.00125 -0.010040625 6.01557630165e-07
349 1 -0.024215625 -0.00125 -0.008859375 0.0
350 1 -0.024215625 -0.00125 -0.007678125 0.0
351 1 -0.024215625 -0.00125 -0.006496875 0.0
352 1 -0.024215625 -0.00125 -0.005315625 0.0
353 1 -0.024215625 -0.00125 -0.004134375 6.01557630165e-07
354 1 -0.024215625 -0.00125 -0.002953125 0.0
355 1 -0.024215625 -0.00125 -0.001771875 0.0
356 1 -0.024215625 -0.00125 -0.000590625 0.0
357 1 -0.024215625 -0.00125 0.000590625 1.40785443464e-30
358 1 -0.024215625 -0.00125 0.001771875 1.74019667629e-11
359 1 -0.024215625 -0.00125 0.002953125 0.0
360 1 -0.024215625 -0.00125 0.004134375 0.0
361 1 -0.024215625 -0.00125 0.005315625 0.0
362 1 -0.024215625 -0.00125 0.006496875 2.79378975481e-22
363 1 -0.024215625 -0.00125 0.007678125 6.01557630165e-07
364 1 -0.024215625 -0.00125 0.008859375 6.01557630165e-07
365 1 -0.024215625 -0.00125 0.010040625 0.0
366 1 -0.024215625 -0.00125 0.011221875 1.74019667629e-11
367 1 -0.024215625 -0.00125 0.012403125 0.0
368 1 -0.024215625 -0.00125 0.013584375 0.0
369 1 -0.024215625 -0.00125 0.014765625 0.123928325831
370 1 -0.024215625 -0.00125 0.015946875 0.758193091305
371 1 -0.024215625 -0.00125 0.017128125 0.39037452881
372 1 -0.024215625 -0.00125 0.018309375 0.01386971523
373 1 -0.024215625 -0.00125 0.019490625 1.28754471296e-08
374 1 -0.024215625 -0.00125 0.020671875 0.000126658700522
375 1 -0.024215625 -0.00125 0.021853125 0.000126658700522
376 1 -0.024215625 -0.00125 0.023034375 0.00474645121499
377 1 -0.024215625 -0.00125 0.024215625 0.00474645121499
378 1 -0.024215625 -0.00125 0.025396875 0.00474645121499
379 1 -0.024215625 -0.00125 0.026578125 1.58378774223e-05
380 1 -0.024215625 -0.00125 0.027759375 0.0
381 1 -0.023034375 -0.00125 -0.027759375 0.00106278235535
382 1 -0.023034375 -0.00125 -0.026578125 1.74019667629e-11
383 1 -0.023034375 -0.00125 -0.025396875 1.74019667629e-11
384 1 -0.023034375 -0.00125 -0.024215625 1.74019667629e-11
385 1 -0.023034375 -0.00125 -0.023034375 1.74019667629e-11
386 1 -0.023034375 -0.00125 -0.021853125 0.000126658700522
387 1 -0.023034375 -0.00125 -0.020671875 0.00154813293271
388 1 -0.023034375 -0.00125 -0.019490625 0.00565998798415
389 1 -0.023034375 -0.00125 -0.018309375 0.0243767756543
390 1 -0.023034375 -0.00125 -0.017128125 0.01386971523
391 1 -0.023034375 -0.00125 -0.015946875 0.00154813293271
392 1 -0.023034375 -0.00125 -0.014765625 0.000126658700522
393 1 -0.023034375 -0.00125 -0.013584375 0.205179062488
394 1 -0.023034375 -0.00125 -0.012403125 1.74019667629e-11
395 1 -0.023034375 -0.00125 -0.011221875 1.74019667629e-11
396 1 -0.023034375 -0.00125 -0.010040625 0.0
397 1 -0.023034375 -0.00125 -0.008859375 1.74019667629e-11
398 1 -0.023034375 -0.00125 -0.007678125 0.0
399 1 -0.023034375 -0.00125 -0.006496875 0.0
400 1 -0.023034375 -0.00125 -0.005315625 4.52220221462e-06
401 1 -0.023034375 -0.00125 -0.004134375 0.000891017573599
402 1 -0.023034375 -0.00125 -0.002953125 6.01557630165e-07
403 1 -0.023034375 -0.00125 -0.001771875 0.0
404 1 -0.023034375 -0.00125 -0.000590625 1.22156214432e-15
405 1 -0.023034375 -0.00125 0.000590625 7.69890035527e-05
406 1 -0.023034375 -0.00125 0.001771875 0.0032259559905
407 1 -0.023034375 -0.00125 0.002953125 0.00474645121499
408 1 -0.023034375 -0.00125 0.004134375 0.000891017573599
409 1 -0.023034375 -0.00125 0.005315625 0.00154813293271
410 1 -0.023034375 -0.00125 0.006496875 0.00228022050368
411 1 -0.023034375 -0.00125 0.007678125 0.01386971523
412 1 -0.023034375 -0.00125 0.008859375 0.000891017573599
413 1 -0.023034375 -0.00125 0.010040625 0.000891023127979
414 1 -0.023034375 -0.00125 0.011221875 0.000466557301994
415 1 -0.023034375 -0.00125 0.012403125 1.74019667629e-11
416 1 -0.023034375 -0.00125 0.013584375 0.0
417 1 -0.023034375 -0.00125 0.014765625 0.14929428164
418 1 -0.023034375 -0.00125 0.015946875 0.725326743907
419 1 -0.023034375 -0.00125 0.017128125 0.0381872649833
420 1 -0.023034375 -0.00125 0.018309375 0.000126658700522
421 1 -0.023034375 -0.00125 0.019490625 0.000535662176186
422 1 -0.023034375 -0.00125 0.020671875 0.0293069007767
423 1 -0.023034375 -0.00125 0.021853125 0.0293069007767
424 1 -0.023034375 -0.00125 0.023034375 0.0243767756543
425 1 -0.023034375 -0.00125 0.024215625 0.0443322841124
426 1 -0.023034375 -0.00125 0.025396875 0.0698876476892
427 1 -0.023034375 -0.00125 0.026578125 0.0207856853608
428 1 -0.023034375 -0.00125 0.027759375 0.0418564289367
429 1 -0.021853125 -0.00125 -0.028940625 0.056860843261
430 1 -0.021853125 -0.00125 -0.027759375 0.0660859508844
431 1 -0.021853125 -0.00125 -0.026578125 2.79378975481e-22
432 1 -0.021853125 -0.00125 -0.025396875 0.00154813293271
433 1 -0.021853125 -0.00125 -0.024215625 0.00154813293271
434 1 -0.021853125 -0.00125 -0.023034375 6.01557630165e-07
435 1 -0.021853125 -0.00125 -0.021853125 0.000126658700522
436 1 -0.021853125 -0.00125 -0.020671875 0.00154813293271
437 1 -0.021853125 -0.00125 -0.019490625 0.0138696939255
438 1 -0.021853125 -0.00125 -0.018309375 0.0138696939255
439 1 -0.021853125 -0.00125 -0.017128125 0.0138696939255
440 1 -0.021853125 -0.00125 -0.015946875 0.0138696939255
441 1 -0.021853125 -0.00125 -0.014765625 0.00154813293271
442 1 -0.021853125 -0.00125 -0.013584375 0.272470466451
443 1 -0.021853125 -0.00125 -0.012403125 4.52220221462e-06
444 1 -0.021853125 -0.00125 -0.011221875 1.74019667629e-11
445 1 -0.021853125 -0.00125 -0.010040625 1.74019667629e-11
446 1 -0.021853125 -0.00125 -0.008859375 1.74019667629e-11
447 1 -0.021853125 -0.00125 -0.007678125 0.0
448 1 -0.021853125 -0.00125 -0.006496875 0.0
449 1 -0.021853125 -0.00125 -0.005315625 1.74019667629e-11
450 1 -0.021853125 -0.00125 -0.004134375 0.00154812961495
451 1 -0.021853125 -0.00125 -0.002953125 0.0622852495443
452 1 -0.021853125 -0.00125 -0.001771875 0.091233852548
453 1 -0.021853125 -0.00125 -0.000590625 0.0912339065983
454 1 -0.021853125 -0.00125 0.000590625 0.184079939687
455 1 -0.021853125 -0.00125 0.001771875 0.21372123369
456 1 -0.021853125 -0.00125 0.002953125 0.361325055821
457 1 -0.021853125 -0.00125 0.004134375 0.207309638309
458 1 -0.021853125 -0.00125 0.005315625 0.186171540908
459 1 -0.021853125 -0.00125 0.006496875 0.128706688471
460 1 -0.021853125 -0.00125 0.007678125 0.091233852548
461 1 -0.021853125 -0.00125 0.008859375 0.0243767756543
462 1 -0.021853125 -0.00125 0.010040625 0.07461867463
463 1 -0.021853125 -0.00125 0.011221875 0.0199375166154
464 1 -0.021853125 -0.00125 0.012403125 0.000126657572948
465 1 -0.021853125 -0.00125 0.013584375 2.79378975481e-22
466 1 -0.021853125 -0.00125 0.014765625 0.123928325831
467 1 -0.021853125 -0.00125 0.015946875 0.39037452881
468 1 -0.021853125 -0.00125 0.017128125 0.000891017573599
469 1 -0.021853125 -0.00125 0.018309375 0.000126658700522
470 1 -0.021853125 -0.00125 0.019490625 0.0138696939255
471 1 -0.021853125 -0.00125 0.020671875 0.0509111013046
472 1 -0.021853125 -0.00125 0.021853125 0.0698876476892
473 1 -0.021853125 -0.00125 0.023034375 0.0698876476892
474 1 -0.021853125 -0.00125 0.024215625 0.0698876476892
475 1 -0.021853125 -0.00125 0.025396875 0.0443322841124
476 1 -0.021853125 -0.00125 0.026578125 0.000535662176186
477 1 -0.021853125 -0.00125 0.027759375 0.0328185601249
478 1 -0.021853125 -0.00125 0.028940625 0.00466864259094
479 1 -0.020671875 -0.00125 -0.030121875 0.0
480 1 -0.020671875 -0.00125 -0.028940625 0.000245540111831
481 1 -0.020671875 -0.00125 -0.027759375 1.22156214432e-15
482 1 -0.020671875 -0.00125 -0.026578125 1.28754471296e-08
483 1 -0.020671875 -0.00125 -0.025396875 0.000126658700522
484 1 -0.020671875 -0.00125 -0.024215625 0.00154813293271
485 1 -0.020671875 -0.00125 -0.023034375 0.00154813293271
486 1 -0.020671875 -0.00125 -0.021853125 0.000126658700522
487 1 -0.020671875 -0.00125 -0.020671875 0.0138696939255
488 1 -0.020671875 -0.00125 -0.019490625 0.0207856853608
489 1 -0.020671875 -0.00125 -0.018309375 0.0138696939255
490 1 -0.020671875 -0.00125 -0.017128125 0.0138696939255
491 1 -0.020671875 -0.00125 -0.015946875 0.0138696939255
492 1 -0.020671875 -0.00125 -0.014765625 0.0138696939255
493 1 -0.020671875 -0.00125 -0.013584375 0.40155560828
494 1 -0.020671875 -0.00125 -0.012403125 0.159358746116
495 1 -0.020671875 -0.00125 -0.011221875 0.0138696939255
496 1 -0.020671875 -0.00125 -0.010040625 1.74019667629e-11
497 1 -0.020671875 -0.00125 -0.008859375 0.0
498 1 -0.020671875 -0.00125 -0.007678125 6.01557630165e-07
499 1 -0.020671875 -0.00125 -0.006496875 0.076223040211
500 1 -0.020671875 -0.00125 -0.005315625 0.091233852548
501 1 -0.020671875 -0.00125 -0.004134375 0.123928325831
502 1 -0.020671875 -0.00125 -0.002953125 0.441823107051
503 1 -0.020671875 -0.00125 -0.001771875 0.310081568404
504 1 -0.020671875 -0.00125 -0.000590625 0.477623491928
505 1 -0.020671875 -0.00125 0.000590625 0.483217873349
506 1 -0.020671875 -0.00125 0.001771875 0.321195978177
507 1 -0.020671875 -0.00125 0.002953125 0.292342717184
508 1 -0.020671875 -0.00125 0.004134375 0.401555093596
509 1 -0.020671875 -0.00125 0.005315625 0.372492797347
510 1 -0.020671875 -0.00125 0.006496875 0.346817124959
511 1 -0.020671875 -0.00125 0.007678125 0.186171540908
512 1 -0.020671875 -0.00125 0.008859375 0.175758893257
513 1 -0.020671875 -0.00125 0.010040625 0.0698876476892
514 1 -0.020671875 -0.00125 0.011221875 0.159358746116
515 1 -0.020671875 -0.00125 0.012403125 0.0381872278205
516 1 -0.020671875 -0.00125 0.013584375 0.0267810093374
517 1 -0.020671875 -0.00125 0.014765625 0.412738808647
518 1 -0.020671875 -0.00125 0.015946875 0.21372123369
519 1 -0.020671875 -0.00125 0.017128125 0.00154813293271
520 1 -0.020671875 -0.00125 0.018309375 0.00474645121499
521 1 -0.020671875 -0.00125 0.019490625 0.0138696939255
522 1 -0.020671875 -0.00125 0.020671875 0.0293069007767
523 1 -0.020671875 -0.00125 0.021853125 0.0698876476892
524 1 -0.020671875 -0.00125 0.023034375 0.0293069007767
525 1 -0.020671875 -0.00125 0.024215625 0.0293069007767
526 1 -0.020671875 -0.00125 0.025396875 0.0138696939255
527 1 -0.020671875 -0.00125 0.026578125 6.01551003484e-07
528 1 -0.020671875 -0.00125 0.027759375 0.0
529 1 -0.020671875 -0.00125 0.028940625 0.0
530 1 -0.020671875 -0.00125 0.030121875 0.0
531 1 -0.019490625 -0.00125 -0.031303125 3.89233970239e-05
532 1 -0.019490625 -0.00125 -0.030121875 0.00284459309142
533 1 -0.019490625 -0.00125 -0.028940625 0.0267810196531
534 1 -0.019490625 -0.00125 -0.027759375 0.0267810609157
535 1 -0.019490625 -0.00125 -0.026578125 0.0152671775718
536 1 -0.019490625 -0.00125 -0.025396875 0.0187026777134
537 1 -0.019490625 -0.00125 -0.024215625 0.00154812961495
538 1 -0.019490625 -0.00125 -0.023034375 3.14925560351e-13
539 1 -0.019490625 -0.00125 -0.021853125 1.28754471296e-08
540 1 -0.019490625 -0.00125 -0.020671875 1.77731074088e-06
541 1 -0.019490625 -0.00125 -0.019490625 0.00212748184611
542 1 -0.019490625 -0.00125 -0.018309375 0.00284458672872
543 1 -0.019490625 -0.00125 -0.017128125 0.0085515641959
544 1 -0.019490625 -0.00125 -0.015946875 0.0138696939255
545 1 -0.019490625 -0.00125 -0.014765625 0.0138696939255
546 1 -0.019490625 -0.00125 -0.013584375 0.107179814045
547 1 -0.019490625 -0.00125 -0.012403125 0.73852027188
548 1 -0.019490625 -0.00125 -0.011221875 0.574957472579
549 1 -0.019490625 -0.00125 -0.010040625 0.243984912454
550 1 -0.019490625 -0.00125 -0.008859375 0.219086517041
551 1 -0.019490625 -0.00125 -0.007678125 0.224469467126
552 1 -0.019490625 -0.00125 -0.006496875 0.105818410473
553 1 -0.019490625 -0.00125 -0.005315625 0.111756921427
554 1 -0.019490625 -0.00125 -0.004134375 0.151294744507
555 1 -0.019490625 -0.00125 -0.002953125 0.221237336973
556 1 -0.019490625 -0.00125 -0.001771875 0.0475687797882