ITEM: TIMESTEP
0
ITEM: NUMBER OF ATOMS
3080
ITEM: BOX BOUNDS ss ss ss
-3.7007399999999996e-02 3.7007399999999996e-02
-2.0002499999999999e-03 2.5000000000000004e-07
-3.7007399999999996e-02 3.7007399999999996e-02
ITEM: ATOMS id type x y z c_1
0 1 -0.037209375 -0.00125 -0.000590625 1.0
1 1 -0.036028125 -0.00125 -0.007678125 0.0
2 1 -0.036028125 -0.00125 -0.006496875 0.0
3 1 -0.036028125 -0.00125 -0.005315625 0.0
4 1 -0.036028125 -0.00125 -0.004134375 0.0
5 1 -0.036028125 -0.00125 -0.002953125 0.0
6 1 -0.036028125 -0.00125 -0.001771875 0.0
7 1 -0.036028125 -0.00125 -0.000590625 0.0
8 1 -0.036028125 -0.00125 0.000590625 0.0
9 1 -0.036028125 -0.00125 0.001771875 0.0
10 1 -0.036028125 -0.00125 0.002953125 0.0
11 1 -0.036028125 -0.00125 0.004134375 0.0
12 1 -0.036028125 -0.00125 0.005315625 0.0
13 1 -0.036028125 -0.00125 0.006496875 0.0
14 1 -0.036028125 -0.00125 0.007678125 0.0
15 1 -0.034846875 -0.00125 -0.011221875 0.0
16 1 -0.034846875 -0.00125 -0.010040625 0.0
17 1 -0.034846875 -0.00125 -0.008859375 0.0
18 1 -0.034846875 -0.00125 -0.007678125 0.0
19 1 -0.034846875 -0.00125 -0.006496875 0.0
20 1 -0.034846875 -0.00125 -0.005315625 0.0
21 1 -0.034846875 -0.00125 -0.004134375 0.0
22 1 -0.034846875 -0.00125 -0.002953125 0.0
23 1 -0.034846875 -0.00125 -0.001771875 0.0
24 1 -0.034846875 -0.00125 -0.000590625 0.0
25 1 -0.034846875 -0.00125 0.000590625 0.0
26 1 -0.034846875 -0.00125 0.001771875 0.0
27 1 -0.034846875 -0.00125 0.002953125 0.0
28 1 -0.034846875 -0.00125 0.004134375 0.0
29 1 -0.034846875 -0.00125 0.005315625 0.0
30 1 -0.034846875 -0.00125 0.006496875 0.0
31 1 -0.034846875 -0.00125 0.007678125 0.0
32 1 -0.034846875 -0.00125 0.008859375 0.0
33 1 -0.034846875 -0.00125 0.010040625 0.0
34 1 -0.034846875 -0.00125 0.011221875 0.0
35 1 -0.033665625 -0.00125 -0.013584375 0.0
36 1 -0.033665625 -0.00125 -0.012403125 0.0
37 1 -0.033665625 -0.00125 -0.011221875 0.0
38 1 -0.033665625 -0.00125 -0.010040625 0.0
39 1 -0.033665625 -0.00125 -0.008859375 0.0
40 1 -0.033665625 -0.00125 -0.007678125 0.0
41 1 -0.033665625 -0.00125 -0.006496875 0.0
42 1 -0.033665625 -0.00125 -0.005315625 0.0
43 1 -0.033665625 -0.00125 -0.004134375 0.0
44 1 -0.033665625 -0.00125 -0.002953125 0.0
45 1 -0.033665625 -0.00125 -0.001771875 0.0
46 1 -0.033665625 -0.00125 -0.000590625 0.0
47 1 -0.033665625 -0.00125 0.000590625 0.0
48 1 -0.033665625 -0.00125 0.001771875 0.0
49 1 -0.033665625 -0.00125 0.002953125 0.0
50 1 -0.033665625 -0.00125 0.004134375 0.0
51 1 -0.033665625 -0.00125 0.005315625 0.0
52 1 -0.033665625 -0.00125 0.006496875 0.0
53 1 -0.033665625 -0.00125 0.007678125 0.0
54 1 -0.033665625 -0.00125 0.008859375 0.0
55 1 -0.033665625 -0.00125 0.010040625 0.0
56 1 -0.033665625 -0.00125 0.011221875 0.0
57 1 -0.033665625 -0.00125 0.012403125 0.0
58 1 -0.033665625 -0.00125 0.013584375 0.0
59 1 -0.032484375 -0.00125 -0.018309375 0.0
60 1 -0.032484375 -0.00125 -0.017128125 0.0
61 1 -0.032484375 -0.00125 -0.015946875 0.0
62 1 -0.032484375 -0.00125 -0.014765625 0.0
63 1 -0.032484375 -0.00125 -0.013584375 0.0
64 1 -0.032484375 -0.00125 -0.012403125 0.0
65 1 -0.032484375 -0.00125 -0.011221875 0.0
66 1 -0.032484375 -0.00125 -0.010040625 0.0
67 1 -0.032484375 -0.00125 -0.008859375 0.0
68 1 -0.032484375 -0.00125 -0.007678125 0.0
69 1 -0.032484375 -0.00125 -0.006496875 0.0
70 1 -0.032484375 -0.00125 -0.005315625 0.0
71 1 -0.032484375 -0.00125 -0.004134375 0.0
72 1 -0.032484375 -0.00125 -0.002953125 0.0
73 1 -0.032484375 -0.00125 -0.001771875 0.0
74 1 -0.032484375 -0.00125 -0.000590625 0.0
75 1 -0.032484375 -0.00125 0.000590625 0.0
76 1 -0.032484375 -0.00125 0.001771875 0.0
77 1 -0.032484375 -0.00125 0.002953125 0.0
78 1 -0.032484375 -0.00125 0.004134375 0.0
79 1 -0.032484375 -0.00125 0.005315625 0.0
80 1 -0.032484375 -0.00125 0.006496875 0.0
81 1 -0.032484375 -0.00125 0.007678125 0.0
82 1 -0.032484375 -0.00125 0.008859375 0.0
83 1 -0.032484375 -0.00125 0.010040625 0.0
84 1 -0.032484375 -0.00125 0.011221875 0.0
85 1 -0.032484375 -0.00125 0.012403125 0.0
86 1 -0.032484375 -0.00125 0.013584375 0.0
87 1 -0.032484375 -0.00125 0.014765625 0.0
88 1 -0.032484375 -0.00125 0.015946875 0.0
89 1 -0.032484375 -0.00125 0.017128125 0.0
90 1 -0.032484375 -0.00125 0.018309375 0.0
91 1 -0.031303125 -0.00125 -0.019490625 0.0
92 1 -0.031303125 -0.00125 -0.018309375 0.0
93 1 -0.031303125 -0.00125 -0.017128125 0.0
94 1 -0.031303125 -0.00125 -0.015946875 0.0
95 1 -0.031303125 -0.00125 -0.014765625 0.0
96 1 -0.031303125 -0.00125 -0.013584375 0.0
97 1 -0.031303125 -0.00125 -0.012403125 0.0
98 1 -0.031303125 -0.00125 -0.011221875 0.0
99 1 -0.031303125 -0.00125 -0.010040625 0.0
100 1 -0.031303125 -0.00125 -0.008859375 0.0
101 1 -0.031303125 -0.00125 -0.007678125 0.0
102 1 -0.031303125 -0.00125 -0.006496875 0.0
103 1 -0.031303125 -0.00125 -0.005315625 0.0
104 1 -0.031303125 -0.00125 -0.004134375 0.0
105 1 -0.031303125 -0.00125 -0.002953125 0.0
106 1 -0.031303125 -0.00125 -0.001771875 0.0
107 1 -0.031303125 -0.00125 -0.000590625 0.0
108 1 -0.031303125 -0.00125 0.000590625 0.0
109 1 -0.031303125 -0.00125 0.001771875 0.0
110 1 -0.031303125 -0.00125 0.002953125 0.0
111 1 -0.031303125 -0.00125 0.004134375 0.0
112 1 -0.031303125 -0.00125 0.005315625 0.0
113 1 -0.031303125 -0.00125 0.006496875 0.0
114 1 -0.031303125 -0.00125 0.007678125 0.0
115 1 -0.031303125 -0.00125 0.008859375 0.0
116 1 -0.031303125 -0.00125 0.010040625 0.0
117 1 -0.031303125 -0.00125 0.011221875 0.0
118 1 -0.031303125 -0.00125 0.012403125 0.0
119 1 -0.031303125 -0.00125 0.013584375 0.0
120 1 -0.031303125 -0.00125 0.014765625 0.0
121 1 -0.031303125 -0.00125 0.015946875 0.0
122 1 -0.031303125 -0.00125 0.017128125 0.0
123 1 -0.031303125 -0.00125 0.018309375 0.0
124 1 -0.031303125 -0.00125 0.019490625 0.0
125 1 -0.030121875 -0.00125 -0.020671875 0.0
126 1 -0.030121875 -0.00125 -0.019490625 0.0
127 1 -0.030121875 -0.00125 -0.018309375 0.0
128 1 -0.030121875 -0.00125 -0.017128125 0.0
129 1 -0.030121875 -0.00125 -0.015946875 0.0
130 1 -0.030121875 -0.00125 -0.014765625 0.0
131 1 -0.030121875 -0.00125 -0.013584375 0.0
132 1 -0.030121875 -0.00125 -0.012403125 0.0
133 1 -0.030121875 -0.00125 -0.011221875 0.0
134 1 -0.030121875 -0.00125 -0.010040625 0.0
135 1 -0.030121875 -0.00125 -0.008859375 0.0
136 1 -0.030121875 -0.00125 -0.007678125 0.0
137 1 -0.030121875 -0.00125 -0.006496875 0.0
138 1 -0.030121875 -0.00125 -0.005315625 0.0
139 1 -0.030121875 -0.00125 -0.004134375 0.0
140 1 -0.030121875 -0.00125 -0.002953125 0.0
141 1 -0.030121875 -0.00125 -0.001771875 0.0
142 1 -0.030121875 -0.00125 -0.000590625 0.0
143 1 -0.030121875 -0.00125 0.000590625 0.0
144 1 -0.030121875 -0.00125 0.001771875 0.0
145 1 -0.030121875 -0.00125 0.002953125 0.0
146 1 -0.030121875 -0.00125 0.004134375 0.0
147 1 -0.030121875 -0.00125 0.005315625 0.0
148 1 -0.030121875 -0.00125 0.006496875 0.0
149 1 -0.030121875 -0.00125 0.007678125 0.0
150 1 -0.030121875 -0.00125 0.008859375 0.0
151 1 -0.030121875 -0.00125 0.010040625 0.0
152 1 -0.030121875 -0.00125 0.011221875 0.0
153 1 -0.030121875 -0.00125 0.012403125 0.0
154 1 -0.030121875 -0.00125 0.013584375 0.0
155 1 -0.030121875 -0.00125 0.014765625 0.0
156 1 -0.030121875 -0.00125 0.015946875 0.0
157 1 -0.030121875 -0.00125 0.017128125 0.0
158 1 -0.030121875 -0.00125 0.018309375 0.0
159 1 -0.030121875 -0.00125 0.019490625 0.0
160 1 -0.030121875 -0.00125 0.020671875 0.0
161 1 -0.028940625 -0.00125 -0.021853125 0.00466864259094
162 1 -0.028940625 -0.00125 -0.020671875 0.000245540111831
163 1 -0.028940625 -0.00125 -0.019490625 6.01557630165e-07
164 1 -0.028940625 -0.00125 -0.018309375 0.0
165 1 -0.028940625 -0.00125 -0.017128125 0.0
166 1 -0.028940625 -0.00125 -0.015946875 0.0
167 1 -0.028940625 -0.00125 -0.014765625 0.0
168 1 -0.028940625 -0.00125 -0.013584375 0.0
169 1 -0.028940625 -0.00125 -0.012403125 0.0
170 1 -0.028940625 -0.00125 -0.011221875 0.0
171 1 -0.028940625 -0.00125 -0.010040625 0.0
172 1 -0.028940625 -0.00125 -0.008859375 0.0
173 1 -0.028940625 -0.00125 -0.007678125 0.0
174 1 -0.028940625 -0.00125 -0.006496875 0.0
175 1 -0.028940625 -0.00125 -0.005315625 0.0
176 1 -0.028940625 -0.00125 -0.004134375 0.0
177 1 -0.028940625 -0.00125 -0.002953125 0.0
178 1 -0.028940625 -0.00125 -0.001771875 0.0
179 1 -0.028940625 -0.00125 -0.000590625 0.0
180 1 -0.028940625 -0.00125 0.000590625 0.0
181 1 -0.028940625 -0.00125 0.001771875 0.0
182 1 -0.028940625 -0.00125 0.002953125 0.0
183 1 -0.028940625 -0.00125 0.004134375 0.0
184 1 -0.028940625 -0.00125 0.005315625 0.0
185 1 -0.028940625 -0.00125 0.006496875 0.0
186 1 -0.028940625 -0.00125 0.007678125 0.0
187 1 -0.028940625 -0.00125 0.008859375 0.0
188 1 -0.028940625 -0.00125 0.010040625 0.0
189 1 -0.028940625 -0.00125 0.011221875 0.0
190 1 -0.028940625 -0.00125 0.012403125 0.0
191 1 -0.028940625 -0.00125 0.013584375 0.0
192 1 -0.028940625 -0.00125 0.014765625 0.0
193 1 -0.028940625 -0.00125 0.015946875 0.0
194 1 -0.028940625 -0.00125 0.017128125 0.0
195 1 -0.028940625 -0.00125 0.018309375 0.0
196 1 -0.028940625 -0.00125 0.019490625 0.0
197 1 -0.028940625 -0.00125 0.020671875 0.0
198 1 -0.028940625 -0.00125 0.021853125 0.0
199 1 -0.027759375 -0.00125 -0.024215625 0.0
200 1 -0.027759375 -0.00125 -0.023034375 0.00106278235535
201 1 -0.027759375 -0.00125 -0.021853125 0.00255490305485
202 1 -0.027759375 -0.00125 -0.020671875 0.00154813293271
203 1 -0.027759375 -0.00125 -0.019490625 1.77731074088e-06
204 1 -0.027759375 -0.00125 -0.018309375 0.0
205 1 -0.027759375 -0.00125 -0.017128125 0.0
206 1 -0.027759375 -0.00125 -0.015946875 0.0
207 1 -0.027759375 -0.00125 -0.014765625 0.0
208 1 -0.027759375 -0.00125 -0.013584375 0.0
209 1 -0.027759375 -0.00125 -0.012403125 0.0
210 1 -0.027759375 -0.00125 -0.011221875 0.0
211 1 -0.027759375 -0.00125 -0.010040625 0.0
212 1 -0.027759375 -0.00125 -0.008859375 0.0
213 1 -0.027759375 -0.00125 -0.007678125 0.0
214 1 -0.027759375 -0.00125 -0.006496875 0.0
215 1 -0.027759375 -0.00125 -0.005315625 0.0
216 1 -0.027759375 -0.00125 -0.004134375 0.0
217 1 -0.027759375 -0.00125 -0.002953125 0.0
218 1 -0.027759375 -0.00125 -0.001771875 0.0
219 1 -0.027759375 -0.00125 -0.000590625 0.0
220 1 -0.027759375 -0.00125 0.000590625 0.0
221 1 -0.027759375 -0.00125 0.001771875 0.0
222 1 -0.027759375 -0.00125 0.002953125 0.0
223 1 -0.027759375 -0.00125 0.004134375 0.0
224 1 -0.027759375 -0.00125 0.005315625 0.0
225 1 -0.027759375 -0.00125 0.006496875 0.0
226 1 -0.027759375 -0.00125 0.007678125 0.0
227 1 -0.027759375 -0.00125 0.008859375 0.0
228 1 -0.027759375 -0.00125 0.010040625 0.0
229 1 -0.027759375 -0.00125 0.011221875 0.0
230 1 -0.027759375 -0.00125 0.012403125 0.0
231 1 -0.027759375 -0.00125 0.013584375 0.0
232 1 -0.027759375 -0.00125 0.014765625 0.0
233 1 -0.027759375 -0.00125 0.015946875 0.0
234 1 -0.027759375 -0.00125 0.017128125 0.0
235 1 -0.027759375 -0.00125 0.018309375 0.0
236 1 -0.027759375 -0.00125 0.019490625 0.0
237 1 -0.027759375 -0.00125 0.020671875 0.0
238 1 -0.027759375 -0.00125 0.021853125 0.0
239 1 -0.027759375 -0.00125 0.023034375 0.0
240 1 -0.027759375 -0.00125 0.024215625 0.0
241 1 -0.026578125 -0.00125 -0.026578125 0.0
242 1 -0.026578125 -0.00125 -0.025396875 0.0
243 1 -0.026578125 -0.00125 -0.024215625 0.0
244 1 -0.026578125 -0.00125 -0.023034375 0.0
245 1 -0.026578125 -0.00125 -0.021853125 2.79378975481e-22
246 1 -0.026578125 -0.00125 -0.020671875 1.74014005978e-11
247 1 -0.026578125 -0.00125 -0.019490625 2.79360826313e-22
248 1 -0.026578125 -0.00125 -0.018309375 0.0
249 1 -0.026578125 -0.00125 -0.017128125 0.0
250 1 -0.026578125 -0.00125 -0.015946875 0.0
251 1 -0.026578125 -0.00125 -0.014765625 0.0
252 1 -0.026578125 -0.00125 -0.013584375 0.0
253 1 -0.026578125 -0.00125 -0.012403125 0.0
254 1 -0.026578125 -0.00125 -0.011221875 0.0
255 1 -0.026578125 -0.00125 -0.010040625 0.0
256 1 -0.026578125 -0.00125 -0.008859375 0.0
257 1 -0.026578125 -0.00125 -0.007678125 0.0
258 1 -0.026578125 -0.00125 -0.006496875 1.92522499223e-60
259 1 -0.026578125 -0.00125 -0.005315625 0.0
260 1 -0.026578125 -0.00125 -0.004134375 0.0
261 1 -0.026578125 -0.00125 -0.002953125 0.0
262 1 -0.026578125 -0.00125 -0.001771875 0.0
263 1 -0.026578125 -0.00125 -0.000590625 0.0
264 1 -0.026578125 -0.00125 0.000590625 2.79378975481e-22
265 1 -0.026578125 -0.00125 0.001771875 0.0
266 1 -0.026578125 -0.00125 0.002953125 0.0
267 1 -0.026578125 -0.00125 0.004134375 0.0
268 1 -0.026578125 -0.00125 0.005315625 0.0
269 1 -0.026578125 -0.00125 0.006496875 0.0
270 1 -0.026578125 -0.00125 0.007678125 0.0
271 1 -0.026578125 -0.00125 0.008859375 0.0
272 1 -0.026578125 -0.00125 0.010040625 0.0
273 1 -0.026578125 -0.00125 0.011221875 0.0
274 1 -0.026578125 -0.00125 0.012403125 0.0
275 1 -0.026578125 -0.00125 0.013584375 0.0
276 1 -0.026578125 -0.00125 0.014765625 0.0
277 1 -0.026578125 -0.00125 0.015946875 0.0
278 1 -0.026578125 -0.00125 0.017128125 0.0
279 1 -0.026578125 -0.00125 0.018309375 0.0
280 1 -0.026578125 -0.00125 0.019490625 0.0
281 1 -0.026578125 -0.00125 0.020671875 0.0
282 1 -0.026578125 -0.00125 0.021853125 0.0
283 1 -0.026578125 -0.00125 0.023034375 0.0
284 1 -0.026578125 -0.00125 0.024215625 0.0
285 1 -0.026578125 -0.00125 0.025396875 0.0
286 1 -0.026578125 -0.00125 0.026578125 0.0
287 1 -0.025396875 -0.00125 -0.026578125 0.0
288 1 -0.025396875 -0.00125 -0.025396875 0.0
289 1 -0.025396875 -0.00125 -0.024215625 0.0
290 1 -0.025396875 -0.00125 -0.023034375 0.0
291 1 -0.025396875 -0.00125 -0.021853125 0.0
292 1 -0.025396875 -0.00125 -0.020671875 0.0
293 1 -0.025396875 -0.00125 -0.019490625 0.0
294 1 -0.025396875 -0.00125 -0.018309375 0.0
295 1 -0.025396875 -0.00125 -0.017128125 0.0
296 1 -0.025396875 -0.00125 -0.015946875 0.0
297 1 -0.025396875 -0.00125 -0.014765625 0.0
298 1 -0.025396875 -0.00125 -0.013584375 0.0
299 1 -0.025396875 -0.00125 -0.012403125 0.0
300 1 -0.025396875 -0.00125 -0.011221875 0.0
301 1 -0.025396875 -0.00125 -0.010040625 0.0
302 1 -0.025396875 -0.00125 -0.008859375 0.0
303 1 -0.025396875 -0.00125 -0.007678125 1.74019667629e-11
304 1 -0.025396875 -0.00125 -0.006496875 0.00528183686724
305 1 -0.025396875 -0.00125 -0.005315625 0.0107214510125
306 1 -0.025396875 -0.00125 -0.004134375 1.22156214432e-15
307 1 -0.025396875 -0.00125 -0.002953125 6.01557630165e-07
308 1 -0.025396875 -0.00125 -0.001771875 0.0243767952624
309 1 -0.025396875 -0.00125 -0.000590625 0.0443321642567
310 1 -0.025396875 -0.00125 0.000590625 0.00154812961495
311 1 -0.025396875 -0.00125 0.001771875 0.0
312 1 -0.025396875 -0.00125 0.002953125 0.0
313 1 -0.025396875 -0.00125 0.004134375 0.0
314 1 -0.025396875 -0.00125 0.005315625 0.0
315 1 -0.025396875 -0.00125 0.006496875 2.79378975481e-22
316 1 -0.025396875 -0.00125 0.007678125 0.0
317 1 -0.025396875 -0.00125 0.008859375 0.0
318 1 -0.025396875 -0.00125 0.010040625 0.0
319 1 -0.025396875 -0.00125 0.011221875 0.0
320 1 -0.025396875 -0.00125 0.012403125 0.0
321 1 -0.025396875 -0.00125 0.013584375 0.0
322 1 -0.025396875 -0.00125 0.014765625 0.0
323 1 -0.025396875 -0.00125 0.015946875 0.0
324 1 -0.025396875 -0.00125 0.017128125 0.0
325 1 -0.025396875 -0.00125 0.018309375 0.0
326 1 -0.025396875 -0.00125 0.019490625 0.0
327 1 -0.025396875 -0.00125 0.020671875 0.0
328 1 -0.025396875 -0.00125 0.021853125 0.0
329 1 -0.025396875 -0.00125 0.023034375 0.0
330 1 -0.025396875 -0.00125 0.024215625 0.0
331 1 -0.025396875 -0.00125 0.025396875 0.0
332 1 -0.025396875 -0.00125 0.026578125 0.0
333 1 -0.024215625 -0.00125 -0.027759375 0.0
334 1 -0.024215625 -0.00125 -0.026578125 0.0
335 1 -0.024215625 -0.00125 -0.025396875 0.0
336 1 -0.024215625 -0.00125 -0.024215625 0.0
337 1 -0.024215625 -0.00125 -0.023034375 0.0
338 1 -0.024215625 -0.00125 -0.021853125 0.0
339 1 -0.024215625 -0.00125 -0.020671875 0.0
340 1 -0.024215625 -0.00125 -0.019490625 0.0
341 1 -0.024215625 -0.00125 -0.018309375 0.0
342 1 -0.024215625 -0.00125 -0.017128125 0.0
343 1 -0.024215625 -0.00125 -0.015946875 0.0
344 1 -0.024215625 -0.00125 -0.014765625 0.0
345 1 -0.024215625 -0.00125 -0.013584375 0.0
346 1 -0.024215625 -0.00125 -0.012403125 1.22156214432e-15
347 1 -0.024215625 -0.00125 -0.011221875 0.00154813293271
348 1 -0.024215625 -0.00125 -0.010040625 0.0243767756543
349 1 -0.024215625 -0.00125 -0.008859375 0.123928325831
350 1 -0.024215625 -0.00125 -0.007678125 0.186171540908
351 1 -0.024215625 -0.00125 -0.006496875 0.194580198152
352 1 -0.024215625 -0.00125 -0.005315625 0.129668570718
353 1 -0.024215625 -0.00125 -0.004134375 0.0827704828178
354 1 -0.024215625 -0.00125 -0.002953125 0.114532114604
355 1 -0.024215625 -0.00125 -0.001771875 0.165468790974
356 1 -0.024215625 -0.00125 -0.000590625 0.131598140935
357 1 -0.024215625 -0.00125 0.000590625 0.000126657572948
358 1 -0.024215625 -0.00125 0.001771875 1.74019667629e-11
359 1 -0.024215625 -0.00125 0.002953125 0.0
360 1 -0.024215625 -0.00125 0.004134375 0.0
361 1 -0.024215625 -0.00125 0.005315625 1.74019667629e-11
362 1 -0.024215625 -0.00125 0.006496875 2.79378975481e-22
363 1 -0.024215625 -0.00125 0.007678125 0.0
364 1 -0.024215625 -0.00125 0.008859375 0.0
365 1 -0.024215625 -0.00125 0.010040625 0.0
366 1 -0.024215625 -0.00125 0.011221875 0.0
367 1 -0.024215625 -0.00125 0.012403125 0.000299131636816
368 1 -0.024215625 -0.00125 0.013584375 2.79378975481e-22
369 1 -0.024215625 -0.00125 0.014765625 0.0
370 1 -0.024215625 -0.00125 0.015946875 0.0
371 1 -0.024215625 -0.00125 0.017128125 0.0
372 1 -0.024215625 -0.00125 0.018309375 0.0
373 1 -0.024215625 -0.00125 0.019490625 0.0
374 1 -0.024215625 -0.00125 0.020671875 0.0
375 1 -0.024215625 -0.00125 0.021853125 0.0
376 1 -0.024215625 -0.00125 0.023034375 0.0
377 1 -0.024215625 -0.00125 0.024215625 0.0
378 1 -0.024215625 -0.00125 0.025396875 0.0
379 1 -0.024215625 -0.00125 0.026578125 0.0
380 1 -0.024215625 -0.00125 0.027759375 0.0
381 1 -0.023034375 -0.00125 -0.027759375 0.0
382 1 -0.023034375 -0.00125 -0.026578125 0.0
383 1 -0.023034375 -0.00125 -0.025396875 0.0
384 1 -0.023034375 -0.00125 -0.024215625 0.0
385 1 -0.023034375 -0.00125 -0.023034375 0.0
386 1 -0.023034375 -0.00125 -0.021853125 0.0
387 1 -0.023034375 -0.00125 -0.020671875 0.0
388 1 -0.023034375 -0.00125 -0.019490625 0.0
389 1 -0.023034375 -0.00125 -0.018309375 0.0
390 1 -0.023034375 -0.00125 -0.017128125 0.0
391 1 -0.023034375 -0.00125 -0.015946875 0.0
392 1 -0.023034375 -0.00125 -0.014765625 0.0
393 1 -0.023034375 -0.00125 -0.013584375 1.77729209249e-06
394 1 -0.023034375 -0.00125 -0.012403125 0.00474645121499
395 1 -0.023034375 -0.00125 -0.011221875 0.114532075754
396 1 -0.023034375 -0.00125 -0.010040625 0.21372123369
397 1 -0.023034375 -0.00125 -0.008859375 0.263674497482
398 1 -0.023034375 -0.00125 -0.007678125 0.159358746116
399 1 -0.023034375 -0.00125 -0.006496875 0.0207857392191
400 1 -0.023034375 -0.00125 -0.005315625 0.0138696939255
401 1 -0.023034375 -0.00125 -0.004134375 0.091233852548
402 1 -0.023034375 -0.00125 -0.002953125 0.0443322841124
403 1 -0.023034375 -0.00125 -0.001771875 0.0293069007767
404 1 -0.023034375 -0.00125 -0.000590625 1.58378774223e-05
405 1 -0.023034375 -0.00125 0.000590625 4.52220221462e-06
406 1 -0.023034375 -0.00125 0.001771875 0.0
407 1 -0.023034375 -0.00125 0.002953125 0.0
408 1 -0.023034375 -0.00125 0.004134375 0.0
409 1 -0.023034375 -0.00125 0.005315625 4.52220221462e-06
410 1 -0.023034375 -0.00125 0.006496875 1.74014005978e-11
411 1 -0.023034375 -0.00125 0.007678125 0.0
412 1 -0.023034375 -0.00125 0.008859375 0.0
413 1 -0.023034375 -0.00125 0.010040625 4.52227625942e-06
414 1 -0.023034375 -0.00125 0.011221875 0.0216537239851
415 1 -0.023034375 -0.00125 0.012403125 0.0243767756543
416 1 -0.023034375 -0.00125 0.013584375 0.00474645121499
417 1 -0.023034375 -0.00125 0.014765625 0.00154813293271
418 1 -0.023034375 -0.00125 0.015946875 1.74019667629e-11
419 1 -0.023034375 -0.00125 0.017128125 0.0
420 1 -0.023034375 -0.00125 0.018309375 0.0
421 1 -0.023034375 -0.00125 0.019490625 0.0
422 1 -0.023034375 -0.00125 0.020671875 0.0
423 1 -0.023034375 -0.00125 0.021853125 0.0
424 1 -0.023034375 -0.00125 0.023034375 0.0
425 1 -0.023034375 -0.00125 0.024215625 0.0
426 1 -0.023034375 -0.00125 0.025396875 0.0
427 1 -0.023034375 -0.00125 0.026578125 0.0
428 1 -0.023034375 -0.00125 0.027759375 0.0
429 1 -0.021853125 -0.00125 -0.028940625 0.0
430 1 -0.021853125 -0.00125 -0.027759375 0.0
431 1 -0.021853125 -0.00125 -0.026578125 0.0
432 1 -0.021853125 -0.00125 -0.025396875 0.0
433 1 -0.021853125 -0.00125 -0.024215625 0.0
434 1 -0.021853125 -0.00125 -0.023034375 0.0
435 1 -0.021853125 -0.00125 -0.021853125 0.0
436 1 -0.021853125 -0.00125 -0.020671875 0.0
437 1 -0.021853125 -0.00125 -0.019490625 0.0
438 1 -0.021853125 -0.00125 -0.018309375 0.0
439 1 -0.021853125 -0.00125 -0.017128125 0.000299131636816
440 1 -0.021853125 -0.00125 -0.015946875 0.00154812961495
441 1 -0.021853125 -0.00125 -0.014765625 0.0243767756543
442 1 -0.021853125 -0.00125 -0.013584375 0.114532075754
443 1 -0.021853125 -0.00125 -0.012403125 0.241806908695
444 1 -0.021853125 -0.00125 -0.011221875 0.0622852805866
445 1 -0.021853125 -0.00125 -0.010040625 0.0509111013046
446 1 -0.021853125 -0.00125 -0.008859375 0.000126657572948
447 1 -0.021853125 -0.00125 -0.007678125 1.74019667629e-11
448 1 -0.021853125 -0.00125 -0.006496875 0.0
449 1 -0.021853125 -0.00125 -0.005315625 1.74019667629e-11
450 1 -0.021853125 -0.00125 -0.004134375 0.0
451 1 -0.021853125 -0.00125 -0.002953125 1.74019667629e-11
452 1 -0.021853125 -0.00125 -0.001771875 0.0
453 1 -0.021853125 -0.00125 -0.000590625 2.79378975481e-22
454 1 -0.021853125 -0.00125 0.000590625 0.0
455 1 -0.021853125 -0.00125 0.001771875 0.0
456 1 -0.021853125 -0.00125 0.002953125 0.0
457 1 -0.021853125 -0.00125 0.004134375 0.0
458 1 -0.021853125 -0.00125 0.005315625 0.000126657572948
459 1 -0.021853125 -0.00125 0.006496875 1.58379241947e-05
460 1 -0.021853125 -0.00125 0.007678125 0.0
461 1 -0.021853125 -0.00125 0.008859375 0.0
462 1 -0.021853125 -0.00125 0.010040625 0.000126657572948
463 1 -0.021853125 -0.00125 0.011221875 0.133535038668
464 1 -0.021853125 -0.00125 0.012403125 0.14929428164
465 1 -0.021853125 -0.00125 0.013584375 0.0564721694534
466 1 -0.021853125 -0.00125 0.014765625 0.0243767756543
467 1 -0.021853125 -0.00125 0.015946875 0.00474645121499
468 1 -0.021853125 -0.00125 0.017128125 0.0
469 1 -0.021853125 -0.00125 0.018309375 0.0
470 1 -0.021853125 -0.00125 0.019490625 0.0
471 1 -0.021853125 -0.00125 0.020671875 0.0
472 1 -0.021853125 -0.00125 0.021853125 0.0
473 1 -0.021853125 -0.00125 0.023034375 0.0
474 1 -0.021853125 -0.00125 0.024215625 0.0
475 1 -0.021853125 -0.00125 0.025396875 0.0
476 1 -0.021853125 -0.00125 0.026578125 0.0
477 1 -0.021853125 -0.00125 0.027759375 0.0
478 1 -0.021853125 -0.00125 0.028940625 0.0
479 1 -0.020671875 -0.00125 -0.030121875 0.0
480 1 -0.020671875 -0.00125 -0.028940625 0.0
481 1 -0.020671875 -0.00125 -0.027759375 0.0
482 1 -0.020671875 -0.00125 -0.026578125 0.0
483 1 -0.020671875 -0.00125 -0.025396875 0.0
484 1 -0.020671875 -0.00125 -0.024215625 0.0
485 1 -0.020671875 -0.00125 -0.023034375 0.0
486 1 -0.020671875 -0.00125 -0.021853125 0.0
487 1 -0.020671875 -0.00125 -0.020671875 1.74019667629e-11
488 1 -0.020671875 -0.00125 -0.019490625 1.74014005978e-11
489 1 -0.020671875 -0.00125 -0.018309375 0.0
490 1 -0.020671875 -0.00125 -0.017128125 0.000126657572948
491 1 -0.020671875 -0.00125 -0.015946875 0.00154812961495
492 1 -0.020671875 -0.00125 -0.014765625 0.0381872649833
493 1 -0.020671875 -0.00125 -0.013584375 0.095575355231
494 1 -0.020671875 -0.00125 -0.012403125 0.0698876476892
495 1 -0.020671875 -0.00125 -0.011221875 0.00668182974929
496 1 -0.020671875 -0.00125 -0.010040625 1.22156214432e-15
497 1 -0.020671875 -0.00125 -0.008859375 0.0
498 1 -0.020671875 -0.00125 -0.007678125 0.0
499 1 -0.020671875 -0.00125 -0.006496875 0.000126656946521
500 1 -0.020671875 -0.00125 -0.005315625 0.00474645121499
501 1 -0.020671875 -0.00125 -0.004134375 4.42606186288e-05
502 1 -0.020671875 -0.00125 -0.002953125 0.0107214510125
503 1 -0.020671875 -0.00125 -0.001771875 0.0159957673393
504 1 -0.020671875 -0.00125 -0.000590625 7.46379050804e-06
505 1 -0.020671875 -0.00125 0.000590625 0.0
506 1 -0.020671875 -0.00125 0.001771875 0.0
507 1 -0.020671875 -0.00125 0.002953125 0.0
508 1 -0.020671875 -0.00125 0.004134375 0.0
509 1 -0.020671875 -0.00125 0.005315625 0.000891017573599
510 1 -0.020671875 -0.00125 0.006496875 0.00393677008797
511 1 -0.020671875 -0.00125 0.007678125 1.22156214432e-15
512 1 -0.020671875 -0.00125 0.008859375 1.74019667629e-11
513 1 -0.020671875 -0.00125 0.010040625 0.00668184101894
514 1 -0.020671875 -0.00125 0.011221875 0.123928325831
515 1 -0.020671875 -0.00125 0.012403125 0.186171540908
516 1 -0.020671875 -0.00125 0.013584375 0.11175699854
517 1 -0.020671875 -0.00125 0.014765625 0.0622852495443
518 1 -0.020671875 -0.00125 0.015946875 0.00474645121499
519 1 -0.020671875 -0.00125 0.017128125 1.74019667629e-11
520 1 -0.020671875 -0.00125 0.018309375 0.0
521 1 -0.020671875 -0.00125 0.019490625 0.0
522 1 -0.020671875 -0.00125 0.020671875 0.0
523 1 -0.020671875 -0.00125 0.021853125 0.0
524 1 -0.020671875 -0.00125 0.023034375 0.0
525 1 -0.020671875 -0.00125 0.024215625 0.0
526 1 -0.020671875 -0.00125 0.025396875 0.0
527 1 -0.020671875 -0.00125 0.026578125 0.0
528 1 -0.020671875 -0.00125 0.027759375 0.0
529 1 -0.020671875 -0.00125 0.028940625 0.0
530 1 -0.020671875 -0.00125 0.030121875 0.0
531 1 -0.019490625 -0.00125 -0.031303125 0.0
532 1 -0.019490625 -0.00125 -0.030121875 0.0
533 1 -0.019490625 -0.00125 -0.028940625 2.79378975481e-22
534 1 -0.019490625 -0.00125 -0.027759375 1.77729209249e-06
535 1 -0.019490625 -0.00125 -0.026578125 7.8331402925e-10
536 1 -0.019490625 -0.00125 -0.025396875 0.0
537 1 -0.019490625 -0.00125 -0.024215625 0.0
538 1 -0.019490625 -0.00125 -0.023034375 0.0
539 1 -0.019490625 -0.00125 -0.021853125 7.02299466978e-08
540 1 -0.019490625 -0.00125 -0.020671875 0.000741931199387
541 1 -0.019490625 -0.00125 -0.019490625 7.02299466978e-08
542 1 -0.019490625 -0.00125 -0.018309375 0.0
543 1 -0.019490625 -0.00125 -0.017128125 0.0
544 1 -0.019490625 -0.00125 -0.015946875 3.14925560351e-13
545 1 -0.019490625 -0.00125 -0.014765625 3.14925560351e-13
546 1 -0.019490625 -0.00125 -0.013584375 0.00158814386132
547 1 -0.019490625 -0.00125 -0.012403125 0.0199375341518
548 1 -0.019490625 -0.00125 -0.011221875 0.0199375341518
549 1 -0.019490625 -0.00125 -0.010040625 0.0412041607659
550 1 -0.019490625 -0.00125 -0.008859375 0.167516386218
551 1 -0.019490625 -0.00125 -0.007678125 0.154307310461
552 1 -0.019490625 -0.00125 -0.006496875 0.114531998055
553 1 -0.019490625 -0.00125 -0.005315625 0.0462613098703
554 1 -0.019490625 -0.00125 -0.004134375 0.0912340687489
555 1 -0.019490625 -0.00125 -0.002953125 0.0462613098703
556 1 -0.019490625 -0.00125 -0.001771875 0.0293069115981
557 1 -0.019490625 -0.00125 -0.000590625 0.00255155804718
558 1 -0.019490625 -0.00125 0.000590625 1.74014005978e-11
559 1 -0.019490625 -0.00125 0.001771875 2.79378975481e-22
560 1 -0.019490625 -0.00125 0.002953125 0.0
561 1 -0.019490625 -0.00125 0.004134375 0.0
562 1 -0.019490625 -0.00125 0.005315625 1.74019667629e-11
563 1 -0.019490625 -0.00125 0.006496875 0.0287921630957
564 1 -0.019490625 -0.00125 0.007678125 0.0167442306548
565 1 -0.019490625 -0.00125 0.008859375 3.07878012444e-05
566 1 -0.019490625 -0.00125 0.010040625 0.0475687797882
567 1 -0.019490625 -0.00125 0.011221875 0.306751214506
568 1 -0.019490625 -0.00125 0.012403125 0.172658474079
569 1 -0.019490625 -0.00125 0.013584375 0.00615711523541
570 1 -0.019490625 -0.00125 0.014765625 0.0085515641959
571 1 -0.019490625 -0.00125 0.015946875 0.00565998798415
572 1 -0.019490625 -0.00125 0.017128125 0.00284458672872
573 1 -0.019490625 -0.00125 0.018309375 0.000535662176186
574 1 -0.019490625 -0.00125 0.019490625 1.48545584418e-16
575 1 -0.019490625 -0.00125 0.020671875 0.0
576 1 -0.019490625 -0.00125 0.021853125 0.0
577 1 -0.019490625 -0.00125 0.023034375 0.0
578 1 -0.019490625 -0.00125 0.024215625 0.0
579 1 -0.019490625 -0.00125 0.025396875 0.0
580 1 -0.019490625 -0.00125 0.026578125 0.0
581 1 -0.019490625 -0.00125 0.027759375 0.0
582 1 -0.019490625 -0.00125 0.028940625 0.0
583 1 -0.019490625 -0.00125 0.030121875 0.0
584 1 -0.019490625 -0.00125 0.031303125 0.0
585 1 -0.018309375 -0.00125 -0.032484375 0.0
586 1 -0.018309375 -0.00125 -0.031303125 0.0
587 1 -0.018309375 -0.00125 -0.030121875 0.00154813293271
588 1 -0.018309375 -0.00125 -0.028940625 0.0622852805866
589 1 -0.018309375 -0.00125 -0.027759375 0.114532075754
590 1 -0.018309375 -0.00125 -0.026578125 0.0529663073376
591 1 -0.018309375 -0.00125 -0.025396875 0.000126658700522
592 1 -0.018309375 -0.00125 -0.024215625 0.0
593 1 -0.018309375 -0.00125 -0.023034375 0.000126657572948
594 1 -0.018309375 -0.00125 -0.021853125 0.00906545268845
595 1 -0.018309375 -0.00125 -0.020671875 0.000126657572948
596 1 -0.018309375 -0.00125 -0.019490625 0.0
597 1 -0.018309375 -0.00125 -0.018309375 0.0
598 1 -0.018309375 -0.00125 -0.017128125 0.0
599 1 -0.018309375 -0.00125 -0.015946875 6.01557630165e-07
600 1 -0.018309375 -0.00125 -0.014765625 0.000299132858986
601 1 -0.018309375 -0.00125 -0.013584375 0.056472199209
602 1 -0.018309375 -0.00125 -0.012403125 0.0243767756543
603 1 -0.018309375 -0.00125 -0.011221875 0.149294323427
604 1 -0.018309375 -0.00125 -0.010040625 0.0999860491522
605 1 -0.018309375 -0.00125 -0.008859375 0.0293069007767
606 1 -0.018309375 -0.00125 -0.007678125 0.010721438861
607 1 -0.018309375 -0.00125 -0.006496875 0.0293069007767
608 1 -0.018309375 -0.00125 -0.005315625 4.52220221462e-06
609 1 -0.018309375 -0.00125 -0.004134375 0.000126658700522
610 1 -0.018309375 -0.00125 -0.002953125 6.01557630165e-07
611 1 -0.018309375 -0.00125 -0.001771875 4.52220221462e-06
612 1 -0.018309375 -0.00125 -0.000590625 3.07877004318e-05
613 1 -0.018309375 -0.00125 0.000590625 4.52220221462e-06
614 1 -0.018309375 -0.00125 0.001771875 0.0
615 1 -0.018309375 -0.00125 0.002953125 0.0
616 1 -0.018309375 -0.00125 0.004134375 0.0
617 1 -0.018309375 -0.00125 0.005315625 0.0
618 1 -0.018309375 -0.00125 0.006496875 0.0187026185247
619 1 -0.018309375 -0.00125 0.007678125 0.40155560828
620 1 -0.018309375 -0.00125 0.008859375 0.186171540908
621 1 -0.018309375 -0.00125 0.010040625 0.224469737872