ITEM: TIMESTEP
0
ITEM: NUMBER OF ATOMS
3080
ITEM: BOX BOUNDS ss ss ss
-3.7007399999999996e-02 3.7007399999999996e-02
-2.0002499999999999e-03 2.5000000000000004e-07
-3.7007399999999996e-02 3.7007399999999996e-02
ITEM: ATOMS id type x y z c_1
0 1 -0.037209375 -0.00125 -0.000590625 1.0
1 1 -0.036028125 -0.00125 -0.007678125 0.0
2 1 -0.036028125 -0.00125 -0.006496875 0.0
3 1 -0.036028125 -0.00125 -0.005315625 0.0
4 1 -0.036028125 -0.00125 -0.004134375 0.0
5 1 -0.036028125 -0.00125 -0.002953125 0.0
6 1 -0.036028125 -0.00125 -0.001771875 0.0
7 1 -0.036028125 -0.00125 -0.000590625 0.0
8 1 -0.036028125 -0.00125 0.000590625 0.0
9 1 -0.036028125 -0.00125 0.001771875 0.0
10 1 -0.036028125 -0.00125 0.002953125 0.0
11 1 -0.036028125 -0.00125 0.004134375 0.0
12 1 -0.036028125 -0.00125 0.005315625 0.0
13 1 -0.036028125 -0.00125 0.006496875 0.0
14 1 -0.036028125 -0.00125 0.007678125 0.0
15 1 -0.034846875 -0.00125 -0.011221875 0.000455413315469
16 1 -0.034846875 -0.00125 -0.010040625 0.0
17 1 -0.034846875 -0.00125 -0.008859375 0.0
18 1 -0.034846875 -0.00125 -0.007678125 0.0
19 1 -0.034846875 -0.00125 -0.006496875 0.0
20 1 -0.034846875 -0.00125 -0.005315625 0.0
21 1 -0.034846875 -0.00125 -0.004134375 0.0
22 1 -0.034846875 -0.00125 -0.002953125 0.0
23 1 -0.034846875 -0.00125 -0.001771875 0.0
24 1 -0.034846875 -0.00125 -0.000590625 0.0
25 1 -0.034846875 -0.00125 0.000590625 0.0
26 1 -0.034846875 -0.00125 0.001771875 0.0
27 1 -0.034846875 -0.00125 0.002953125 0.0
28 1 -0.034846875 -0.00125 0.004134375 0.0
29 1 -0.034846875 -0.00125 0.005315625 0.0
30 1 -0.034846875 -0.00125 0.006496875 0.0
31 1 -0.034846875 -0.00125 0.007678125 0.0
32 1 -0.034846875 -0.00125 0.008859375 0.0
33 1 -0.034846875 -0.00125 0.010040625 0.0
34 1 -0.034846875 -0.00125 0.011221875 0.0
35 1 -0.033665625 -0.00125 -0.013584375 0.0
36 1 -0.033665625 -0.00125 -0.012403125 1.63558782507e-05
37 1 -0.033665625 -0.00125 -0.011221875 0.0
38 1 -0.033665625 -0.00125 -0.010040625 0.0
39 1 -0.033665625 -0.00125 -0.008859375 0.0
40 1 -0.033665625 -0.00125 -0.007678125 0.0
41 1 -0.033665625 -0.00125 -0.006496875 0.0
42 1 -0.033665625 -0.00125 -0.005315625 0.0
43 1 -0.033665625 -0.00125 -0.004134375 0.0
44 1 -0.033665625 -0.00125 -0.002953125 0.0
45 1 -0.033665625 -0.00125 -0.001771875 0.0
46 1 -0.033665625 -0.00125 -0.000590625 0.0
47 1 -0.033665625 -0.00125 0.000590625 0.0
48 1 -0.033665625 -0.00125 0.001771875 0.0
49 1 -0.033665625 -0.00125 0.002953125 0.0
50 1 -0.033665625 -0.00125 0.004134375 0.0
51 1 -0.033665625 -0.00125 0.005315625 0.0
52 1 -0.033665625 -0.00125 0.006496875 0.0
53 1 -0.033665625 -0.00125 0.007678125 0.0
54 1 -0.033665625 -0.00125 0.008859375 0.0
55 1 -0.033665625 -0.00125 0.010040625 0.0
56 1 -0.033665625 -0.00125 0.011221875 0.0
57 1 -0.033665625 -0.00125 0.012403125 0.0
58 1 -0.033665625 -0.00125 0.013584375 0.0
59 1 -0.032484375 -0.00125 -0.018309375 0.0
60 1 -0.032484375 -0.00125 -0.017128125 0.0
61 1 -0.032484375 -0.00125 -0.015946875 0.0
62 1 -0.032484375 -0.00125 -0.014765625 0.0
63 1 -0.032484375 -0.00125 -0.013584375 0.0
64 1 -0.032484375 -0.00125 -0.012403125 0.0
65 1 -0.032484375 -0.00125 -0.011221875 0.0
66 1 -0.032484375 -0.00125 -0.010040625 0.0
67 1 -0.032484375 -0.00125 -0.008859375 0.0
68 1 -0.032484375 -0.00125 -0.007678125 0.0
69 1 -0.032484375 -0.00125 -0.006496875 0.0
70 1 -0.032484375 -0.00125 -0.005315625 0.0
71 1 -0.032484375 -0.00125 -0.004134375 0.0
72 1 -0.032484375 -0.00125 -0.002953125 0.0
73 1 -0.032484375 -0.00125 -0.001771875 0.0
74 1 -0.032484375 -0.00125 -0.000590625 0.0
75 1 -0.032484375 -0.00125 0.000590625 0.0
76 1 -0.032484375 -0.00125 0.001771875 0.0
77 1 -0.032484375 -0.00125 0.002953125 0.0
78 1 -0.032484375 -0.00125 0.004134375 0.0
79 1 -0.032484375 -0.00125 0.005315625 0.0
80 1 -0.032484375 -0.00125 0.006496875 0.0
81 1 -0.032484375 -0.00125 0.007678125 0.0
82 1 -0.032484375 -0.00125 0.008859375 0.0
83 1 -0.032484375 -0.00125 0.010040625 0.0
84 1 -0.032484375 -0.00125 0.011221875 0.0
85 1 -0.032484375 -0.00125 0.012403125 0.0
86 1 -0.032484375 -0.00125 0.013584375 0.0
87 1 -0.032484375 -0.00125 0.014765625 0.0
88 1 -0.032484375 -0.00125 0.015946875 0.0
89 1 -0.032484375 -0.00125 0.017128125 0.0
90 1 -0.032484375 -0.00125 0.018309375 1.7269595626e-06
91 1 -0.031303125 -0.00125 -0.019490625 0.0
92 1 -0.031303125 -0.00125 -0.018309375 0.0
93 1 -0.031303125 -0.00125 -0.017128125 0.0
94 1 -0.031303125 -0.00125 -0.015946875 0.0
95 1 -0.031303125 -0.00125 -0.014765625 0.0
96 1 -0.031303125 -0.00125 -0.013584375 0.0
97 1 -0.031303125 -0.00125 -0.012403125 0.0
98 1 -0.031303125 -0.00125 -0.011221875 0.0
99 1 -0.031303125 -0.00125 -0.010040625 0.0
100 1 -0.031303125 -0.00125 -0.008859375 0.0
101 1 -0.031303125 -0.00125 -0.007678125 0.0
102 1 -0.031303125 -0.00125 -0.006496875 0.0
103 1 -0.031303125 -0.00125 -0.005315625 0.000299131636816
104 1 -0.031303125 -0.00125 -0.004134375 0.000126657572948
105 1 -0.031303125 -0.00125 -0.002953125 6.01557630165e-07
106 1 -0.031303125 -0.00125 -0.001771875 0.0
107 1 -0.031303125 -0.00125 -0.000590625 0.0
108 1 -0.031303125 -0.00125 0.000590625 0.0
109 1 -0.031303125 -0.00125 0.001771875 0.0
110 1 -0.031303125 -0.00125 0.002953125 0.0
111 1 -0.031303125 -0.00125 0.004134375 0.0
112 1 -0.031303125 -0.00125 0.005315625 0.0
113 1 -0.031303125 -0.00125 0.006496875 0.0
114 1 -0.031303125 -0.00125 0.007678125 0.0
115 1 -0.031303125 -0.00125 0.008859375 0.0
116 1 -0.031303125 -0.00125 0.010040625 0.0
117 1 -0.031303125 -0.00125 0.011221875 0.0
118 1 -0.031303125 -0.00125 0.012403125 0.0
119 1 -0.031303125 -0.00125 0.013584375 0.0
120 1 -0.031303125 -0.00125 0.014765625 0.0
121 1 -0.031303125 -0.00125 0.015946875 0.0
122 1 -0.031303125 -0.00125 0.017128125 0.0
123 1 -0.031303125 -0.00125 0.018309375 1.61610918776e-06
124 1 -0.031303125 -0.00125 0.019490625 2.66892347814e-17
125 1 -0.030121875 -0.00125 -0.020671875 0.0
126 1 -0.030121875 -0.00125 -0.019490625 0.0
127 1 -0.030121875 -0.00125 -0.018309375 0.0
128 1 -0.030121875 -0.00125 -0.017128125 0.0
129 1 -0.030121875 -0.00125 -0.015946875 0.0
130 1 -0.030121875 -0.00125 -0.014765625 0.0
131 1 -0.030121875 -0.00125 -0.013584375 0.0
132 1 -0.030121875 -0.00125 -0.012403125 0.0
133 1 -0.030121875 -0.00125 -0.011221875 0.0
134 1 -0.030121875 -0.00125 -0.010040625 0.0
135 1 -0.030121875 -0.00125 -0.008859375 0.0
136 1 -0.030121875 -0.00125 -0.007678125 0.0
137 1 -0.030121875 -0.00125 -0.006496875 2.79378975481e-22
138 1 -0.030121875 -0.00125 -0.005315625 0.00668182974929
139 1 -0.030121875 -0.00125 -0.004134375 0.0509111013046
140 1 -0.030121875 -0.00125 -0.002953125 0.0550579642476
141 1 -0.030121875 -0.00125 -0.001771875 0.0550579642476
142 1 -0.030121875 -0.00125 -0.000590625 0.0550579936718
143 1 -0.030121875 -0.00125 0.000590625 0.0381874012468
144 1 -0.030121875 -0.00125 0.001771875 0.0827704828178
145 1 -0.030121875 -0.00125 0.002953125 0.0550579642476
146 1 -0.030121875 -0.00125 0.004134375 0.0381872278205
147 1 -0.030121875 -0.00125 0.005315625 0.000299131636816
148 1 -0.030121875 -0.00125 0.006496875 0.0
149 1 -0.030121875 -0.00125 0.007678125 0.0
150 1 -0.030121875 -0.00125 0.008859375 0.0
151 1 -0.030121875 -0.00125 0.010040625 0.0
152 1 -0.030121875 -0.00125 0.011221875 0.0
153 1 -0.030121875 -0.00125 0.012403125 0.0
154 1 -0.030121875 -0.00125 0.013584375 0.0
155 1 -0.030121875 -0.00125 0.014765625 0.0
156 1 -0.030121875 -0.00125 0.015946875 0.0
157 1 -0.030121875 -0.00125 0.017128125 0.0
158 1 -0.030121875 -0.00125 0.018309375 0.000126658700522
159 1 -0.030121875 -0.00125 0.019490625 3.14925560351e-13
160 1 -0.030121875 -0.00125 0.020671875 0.0
161 1 -0.028940625 -0.00125 -0.021853125 0.0
162 1 -0.028940625 -0.00125 -0.020671875 0.0
163 1 -0.028940625 -0.00125 -0.019490625 0.0
164 1 -0.028940625 -0.00125 -0.018309375 0.0
165 1 -0.028940625 -0.00125 -0.017128125 0.0
166 1 -0.028940625 -0.00125 -0.015946875 0.0
167 1 -0.028940625 -0.00125 -0.014765625 0.0
168 1 -0.028940625 -0.00125 -0.013584375 0.0
169 1 -0.028940625 -0.00125 -0.012403125 0.0
170 1 -0.028940625 -0.00125 -0.011221875 0.0
171 1 -0.028940625 -0.00125 -0.010040625 0.0
172 1 -0.028940625 -0.00125 -0.008859375 0.0
173 1 -0.028940625 -0.00125 -0.007678125 0.0
174 1 -0.028940625 -0.00125 -0.006496875 0.0
175 1 -0.028940625 -0.00125 -0.005315625 0.0
176 1 -0.028940625 -0.00125 -0.004134375 0.000126657572948
177 1 -0.028940625 -0.00125 -0.002953125 0.0107214510125
178 1 -0.028940625 -0.00125 -0.001771875 0.0622852805866
179 1 -0.028940625 -0.00125 -0.000590625 0.0827704828178
180 1 -0.028940625 -0.00125 0.000590625 0.0683383856875
181 1 -0.028940625 -0.00125 0.001771875 0.0827704828178
182 1 -0.028940625 -0.00125 0.002953125 0.0622852805866
183 1 -0.028940625 -0.00125 0.004134375 0.0443322974297
184 1 -0.028940625 -0.00125 0.005315625 0.00668182974929
185 1 -0.028940625 -0.00125 0.006496875 2.79378975481e-22
186 1 -0.028940625 -0.00125 0.007678125 0.0
187 1 -0.028940625 -0.00125 0.008859375 0.0
188 1 -0.028940625 -0.00125 0.010040625 0.0
189 1 -0.028940625 -0.00125 0.011221875 0.0
190 1 -0.028940625 -0.00125 0.012403125 0.0
191 1 -0.028940625 -0.00125 0.013584375 0.0
192 1 -0.028940625 -0.00125 0.014765625 0.0
193 1 -0.028940625 -0.00125 0.015946875 0.0
194 1 -0.028940625 -0.00125 0.017128125 0.0
195 1 -0.028940625 -0.00125 0.018309375 0.000126658700522
196 1 -0.028940625 -0.00125 0.019490625 1.28754471296e-08
197 1 -0.028940625 -0.00125 0.020671875 0.0
198 1 -0.028940625 -0.00125 0.021853125 0.0
199 1 -0.027759375 -0.00125 -0.024215625 0.0
200 1 -0.027759375 -0.00125 -0.023034375 0.0
201 1 -0.027759375 -0.00125 -0.021853125 0.0
202 1 -0.027759375 -0.00125 -0.020671875 0.0
203 1 -0.027759375 -0.00125 -0.019490625 0.0
204 1 -0.027759375 -0.00125 -0.018309375 0.0
205 1 -0.027759375 -0.00125 -0.017128125 0.0
206 1 -0.027759375 -0.00125 -0.015946875 0.0
207 1 -0.027759375 -0.00125 -0.014765625 0.0
208 1 -0.027759375 -0.00125 -0.013584375 0.0
209 1 -0.027759375 -0.00125 -0.012403125 0.0
210 1 -0.027759375 -0.00125 -0.011221875 0.0
211 1 -0.027759375 -0.00125 -0.010040625 0.0
212 1 -0.027759375 -0.00125 -0.008859375 0.0
213 1 -0.027759375 -0.00125 -0.007678125 0.0
214 1 -0.027759375 -0.00125 -0.006496875 0.0
215 1 -0.027759375 -0.00125 -0.005315625 0.0
216 1 -0.027759375 -0.00125 -0.004134375 0.0
217 1 -0.027759375 -0.00125 -0.002953125 0.0
218 1 -0.027759375 -0.00125 -0.001771875 0.0
219 1 -0.027759375 -0.00125 -0.000590625 2.73189882679e-07
220 1 -0.027759375 -0.00125 0.000590625 4.37036150708e-15
221 1 -0.027759375 -0.00125 0.001771875 0.0
222 1 -0.027759375 -0.00125 0.002953125 0.0
223 1 -0.027759375 -0.00125 0.004134375 1.74019667629e-11
224 1 -0.027759375 -0.00125 0.005315625 0.0
225 1 -0.027759375 -0.00125 0.006496875 0.0
226 1 -0.027759375 -0.00125 0.007678125 0.0
227 1 -0.027759375 -0.00125 0.008859375 0.0
228 1 -0.027759375 -0.00125 0.010040625 0.0
229 1 -0.027759375 -0.00125 0.011221875 0.0
230 1 -0.027759375 -0.00125 0.012403125 0.0
231 1 -0.027759375 -0.00125 0.013584375 0.0
232 1 -0.027759375 -0.00125 0.014765625 0.0
233 1 -0.027759375 -0.00125 0.015946875 0.0
234 1 -0.027759375 -0.00125 0.017128125 0.0
235 1 -0.027759375 -0.00125 0.018309375 0.000126658700522
236 1 -0.027759375 -0.00125 0.019490625 1.28754471296e-08
237 1 -0.027759375 -0.00125 0.020671875 0.0
238 1 -0.027759375 -0.00125 0.021853125 0.0
239 1 -0.027759375 -0.00125 0.023034375 0.0
240 1 -0.027759375 -0.00125 0.024215625 0.0
241 1 -0.026578125 -0.00125 -0.026578125 0.0
242 1 -0.026578125 -0.00125 -0.025396875 0.0
243 1 -0.026578125 -0.00125 -0.024215625 0.0
244 1 -0.026578125 -0.00125 -0.023034375 0.0
245 1 -0.026578125 -0.00125 -0.021853125 0.0
246 1 -0.026578125 -0.00125 -0.020671875 2.79378975481e-22
247 1 -0.026578125 -0.00125 -0.019490625 0.0
248 1 -0.026578125 -0.00125 -0.018309375 0.0
249 1 -0.026578125 -0.00125 -0.017128125 0.0
250 1 -0.026578125 -0.00125 -0.015946875 0.0
251 1 -0.026578125 -0.00125 -0.014765625 0.0
252 1 -0.026578125 -0.00125 -0.013584375 0.0
253 1 -0.026578125 -0.00125 -0.012403125 0.0
254 1 -0.026578125 -0.00125 -0.011221875 0.0
255 1 -0.026578125 -0.00125 -0.010040625 0.0
256 1 -0.026578125 -0.00125 -0.008859375 0.0
257 1 -0.026578125 -0.00125 -0.007678125 0.0
258 1 -0.026578125 -0.00125 -0.006496875 0.0
259 1 -0.026578125 -0.00125 -0.005315625 0.0
260 1 -0.026578125 -0.00125 -0.004134375 0.0
261 1 -0.026578125 -0.00125 -0.002953125 0.0
262 1 -0.026578125 -0.00125 -0.001771875 0.0
263 1 -0.026578125 -0.00125 -0.000590625 0.0
264 1 -0.026578125 -0.00125 0.000590625 0.0
265 1 -0.026578125 -0.00125 0.001771875 0.0
266 1 -0.026578125 -0.00125 0.002953125 0.0
267 1 -0.026578125 -0.00125 0.004134375 0.0
268 1 -0.026578125 -0.00125 0.005315625 0.0
269 1 -0.026578125 -0.00125 0.006496875 0.0
270 1 -0.026578125 -0.00125 0.007678125 0.0
271 1 -0.026578125 -0.00125 0.008859375 0.0
272 1 -0.026578125 -0.00125 0.010040625 0.0
273 1 -0.026578125 -0.00125 0.011221875 0.0
274 1 -0.026578125 -0.00125 0.012403125 0.0
275 1 -0.026578125 -0.00125 0.013584375 0.0
276 1 -0.026578125 -0.00125 0.014765625 0.0
277 1 -0.026578125 -0.00125 0.015946875 0.0
278 1 -0.026578125 -0.00125 0.017128125 0.0
279 1 -0.026578125 -0.00125 0.018309375 0.0443321376221
280 1 -0.026578125 -0.00125 0.019490625 0.00118682258441
281 1 -0.026578125 -0.00125 0.020671875 0.0
282 1 -0.026578125 -0.00125 0.021853125 0.0
283 1 -0.026578125 -0.00125 0.023034375 0.0
284 1 -0.026578125 -0.00125 0.024215625 0.0
285 1 -0.026578125 -0.00125 0.025396875 0.0
286 1 -0.026578125 -0.00125 0.026578125 0.0
287 1 -0.025396875 -0.00125 -0.026578125 0.0
288 1 -0.025396875 -0.00125 -0.025396875 0.0
289 1 -0.025396875 -0.00125 -0.024215625 0.0
290 1 -0.025396875 -0.00125 -0.023034375 0.0
291 1 -0.025396875 -0.00125 -0.021853125 1.74019667629e-11
292 1 -0.025396875 -0.00125 -0.020671875 0.000126658700522
293 1 -0.025396875 -0.00125 -0.019490625 0.0
294 1 -0.025396875 -0.00125 -0.018309375 0.0
295 1 -0.025396875 -0.00125 -0.017128125 0.0
296 1 -0.025396875 -0.00125 -0.015946875 0.0
297 1 -0.025396875 -0.00125 -0.014765625 0.0
298 1 -0.025396875 -0.00125 -0.013584375 0.0
299 1 -0.025396875 -0.00125 -0.012403125 0.0
300 1 -0.025396875 -0.00125 -0.011221875 0.0
301 1 -0.025396875 -0.00125 -0.010040625 0.0
302 1 -0.025396875 -0.00125 -0.008859375 0.0
303 1 -0.025396875 -0.00125 -0.007678125 0.0
304 1 -0.025396875 -0.00125 -0.006496875 0.0
305 1 -0.025396875 -0.00125 -0.005315625 0.0
306 1 -0.025396875 -0.00125 -0.004134375 1.74019667629e-11
307 1 -0.025396875 -0.00125 -0.002953125 0.0
308 1 -0.025396875 -0.00125 -0.001771875 0.0
309 1 -0.025396875 -0.00125 -0.000590625 7.02299466978e-08
310 1 -0.025396875 -0.00125 0.000590625 0.0
311 1 -0.025396875 -0.00125 0.001771875 0.0
312 1 -0.025396875 -0.00125 0.002953125 0.0
313 1 -0.025396875 -0.00125 0.004134375 0.0
314 1 -0.025396875 -0.00125 0.005315625 0.0
315 1 -0.025396875 -0.00125 0.006496875 0.0
316 1 -0.025396875 -0.00125 0.007678125 0.0
317 1 -0.025396875 -0.00125 0.008859375 0.0
318 1 -0.025396875 -0.00125 0.010040625 0.0
319 1 -0.025396875 -0.00125 0.011221875 0.0
320 1 -0.025396875 -0.00125 0.012403125 0.0
321 1 -0.025396875 -0.00125 0.013584375 0.0
322 1 -0.025396875 -0.00125 0.014765625 0.0
323 1 -0.025396875 -0.00125 0.015946875 0.0
324 1 -0.025396875 -0.00125 0.017128125 0.0
325 1 -0.025396875 -0.00125 0.018309375 0.091233852548
326 1 -0.025396875 -0.00125 0.019490625 0.0187026608024
327 1 -0.025396875 -0.00125 0.020671875 0.0
328 1 -0.025396875 -0.00125 0.021853125 0.0
329 1 -0.025396875 -0.00125 0.023034375 0.0
330 1 -0.025396875 -0.00125 0.024215625 0.0
331 1 -0.025396875 -0.00125 0.025396875 0.0
332 1 -0.025396875 -0.00125 0.026578125 0.0
333 1 -0.024215625 -0.00125 -0.027759375 0.0
334 1 -0.024215625 -0.00125 -0.026578125 0.0
335 1 -0.024215625 -0.00125 -0.025396875 0.0
336 1 -0.024215625 -0.00125 -0.024215625 0.0
337 1 -0.024215625 -0.00125 -0.023034375 0.0
338 1 -0.024215625 -0.00125 -0.021853125 0.0509111013046
339 1 -0.024215625 -0.00125 -0.020671875 0.0138696939255
340 1 -0.024215625 -0.00125 -0.019490625 0.0
341 1 -0.024215625 -0.00125 -0.018309375 0.0
342 1 -0.024215625 -0.00125 -0.017128125 0.0
343 1 -0.024215625 -0.00125 -0.015946875 0.0
344 1 -0.024215625 -0.00125 -0.014765625 0.0
345 1 -0.024215625 -0.00125 -0.013584375 0.0
346 1 -0.024215625 -0.00125 -0.012403125 0.0
347 1 -0.024215625 -0.00125 -0.011221875 0.0
348 1 -0.024215625 -0.00125 -0.010040625 0.0
349 1 -0.024215625 -0.00125 -0.008859375 0.0
350 1 -0.024215625 -0.00125 -0.007678125 1.74019667629e-11
351 1 -0.024215625 -0.00125 -0.006496875 5.56342681978e-05
352 1 -0.024215625 -0.00125 -0.005315625 0.00474644221021
353 1 -0.024215625 -0.00125 -0.004134375 4.52220221462e-06
354 1 -0.024215625 -0.00125 -0.002953125 0.0
355 1 -0.024215625 -0.00125 -0.001771875 6.01557630165e-07
356 1 -0.024215625 -0.00125 -0.000590625 0.0698876476892
357 1 -0.024215625 -0.00125 0.000590625 0.0293069007767
358 1 -0.024215625 -0.00125 0.001771875 0.0509111013046
359 1 -0.024215625 -0.00125 0.002953125 0.0293069007767
360 1 -0.024215625 -0.00125 0.004134375 4.52227625942e-06
361 1 -0.024215625 -0.00125 0.005315625 0.0
362 1 -0.024215625 -0.00125 0.006496875 0.0
363 1 -0.024215625 -0.00125 0.007678125 0.0
364 1 -0.024215625 -0.00125 0.008859375 0.0
365 1 -0.024215625 -0.00125 0.010040625 0.0
366 1 -0.024215625 -0.00125 0.011221875 0.0
367 1 -0.024215625 -0.00125 0.012403125 0.0
368 1 -0.024215625 -0.00125 0.013584375 0.0
369 1 -0.024215625 -0.00125 0.014765625 0.0
370 1 -0.024215625 -0.00125 0.015946875 0.0
371 1 -0.024215625 -0.00125 0.017128125 1.74019667629e-11
372 1 -0.024215625 -0.00125 0.018309375 0.186171540908
373 1 -0.024215625 -0.00125 0.019490625 0.0187026608024
374 1 -0.024215625 -0.00125 0.020671875 0.0
375 1 -0.024215625 -0.00125 0.021853125 0.0
376 1 -0.024215625 -0.00125 0.023034375 0.0
377 1 -0.024215625 -0.00125 0.024215625 0.0
378 1 -0.024215625 -0.00125 0.025396875 0.0
379 1 -0.024215625 -0.00125 0.026578125 0.0
380 1 -0.024215625 -0.00125 0.027759375 0.0
381 1 -0.023034375 -0.00125 -0.027759375 0.0
382 1 -0.023034375 -0.00125 -0.026578125 0.0
383 1 -0.023034375 -0.00125 -0.025396875 0.0
384 1 -0.023034375 -0.00125 -0.024215625 0.0
385 1 -0.023034375 -0.00125 -0.023034375 4.52227625942e-06
386 1 -0.023034375 -0.00125 -0.021853125 0.123928325831
387 1 -0.023034375 -0.00125 -0.020671875 0.091233852548
388 1 -0.023034375 -0.00125 -0.019490625 0.0
389 1 -0.023034375 -0.00125 -0.018309375 0.0
390 1 -0.023034375 -0.00125 -0.017128125 0.0
391 1 -0.023034375 -0.00125 -0.015946875 0.0
392 1 -0.023034375 -0.00125 -0.014765625 0.0
393 1 -0.023034375 -0.00125 -0.013584375 0.0
394 1 -0.023034375 -0.00125 -0.012403125 1.74019667629e-11
395 1 -0.023034375 -0.00125 -0.011221875 6.01557630165e-07
396 1 -0.023034375 -0.00125 -0.010040625 0.00474644221021
397 1 -0.023034375 -0.00125 -0.008859375 0.010721438861
398 1 -0.023034375 -0.00125 -0.007678125 0.010721438861
399 1 -0.023034375 -0.00125 -0.006496875 0.10266435538
400 1 -0.023034375 -0.00125 -0.005315625 0.186171540908
401 1 -0.023034375 -0.00125 -0.004134375 0.14929428164
402 1 -0.023034375 -0.00125 -0.002953125 0.186171540908
403 1 -0.023034375 -0.00125 -0.001771875 0.186171540908
404 1 -0.023034375 -0.00125 -0.000590625 0.273792300629
405 1 -0.023034375 -0.00125 0.000590625 0.328986121326
406 1 -0.023034375 -0.00125 0.001771875 0.412738808647
407 1 -0.023034375 -0.00125 0.002953125 0.493287429666
408 1 -0.023034375 -0.00125 0.004134375 0.186171540908
409 1 -0.023034375 -0.00125 0.005315625 0.159358746116
410 1 -0.023034375 -0.00125 0.006496875 0.0138697578391
411 1 -0.023034375 -0.00125 0.007678125 0.0
412 1 -0.023034375 -0.00125 0.008859375 0.0
413 1 -0.023034375 -0.00125 0.010040625 0.0
414 1 -0.023034375 -0.00125 0.011221875 0.0
415 1 -0.023034375 -0.00125 0.012403125 0.0
416 1 -0.023034375 -0.00125 0.013584375 0.0
417 1 -0.023034375 -0.00125 0.014765625 0.0
418 1 -0.023034375 -0.00125 0.015946875 0.0
419 1 -0.023034375 -0.00125 0.017128125 0.000126658700522
420 1 -0.023034375 -0.00125 0.018309375 0.361324541927
421 1 -0.023034375 -0.00125 0.019490625 0.00734858299864
422 1 -0.023034375 -0.00125 0.020671875 0.0
423 1 -0.023034375 -0.00125 0.021853125 0.0
424 1 -0.023034375 -0.00125 0.023034375 0.0
425 1 -0.023034375 -0.00125 0.024215625 0.0
426 1 -0.023034375 -0.00125 0.025396875 0.0
427 1 -0.023034375 -0.00125 0.026578125 0.0
428 1 -0.023034375 -0.00125 0.027759375 0.0
429 1 -0.021853125 -0.00125 -0.028940625 0.0
430 1 -0.021853125 -0.00125 -0.027759375 0.0
431 1 -0.021853125 -0.00125 -0.026578125 0.0
432 1 -0.021853125 -0.00125 -0.025396875 0.0
433 1 -0.021853125 -0.00125 -0.024215625 0.0
434 1 -0.021853125 -0.00125 -0.023034375 0.0
435 1 -0.021853125 -0.00125 -0.021853125 0.123928325831
436 1 -0.021853125 -0.00125 -0.020671875 0.123928325831
437 1 -0.021853125 -0.00125 -0.019490625 3.14925560351e-13
438 1 -0.021853125 -0.00125 -0.018309375 1.74019667629e-11
439 1 -0.021853125 -0.00125 -0.017128125 0.0
440 1 -0.021853125 -0.00125 -0.015946875 0.0
441 1 -0.021853125 -0.00125 -0.014765625 0.0
442 1 -0.021853125 -0.00125 -0.013584375 1.28754471296e-08
443 1 -0.021853125 -0.00125 -0.012403125 0.00154812961495
444 1 -0.021853125 -0.00125 -0.011221875 0.00906545268845
445 1 -0.021853125 -0.00125 -0.010040625 0.0443322974297
446 1 -0.021853125 -0.00125 -0.008859375 0.0381872649833
447 1 -0.021853125 -0.00125 -0.007678125 0.0107214510125
448 1 -0.021853125 -0.00125 -0.006496875 0.0430677832437
449 1 -0.021853125 -0.00125 -0.005315625 0.133535038668
450 1 -0.021853125 -0.00125 -0.004134375 0.186171540908
451 1 -0.021853125 -0.00125 -0.002953125 0.186171540908
452 1 -0.021853125 -0.00125 -0.001771875 0.186171540908
453 1 -0.021853125 -0.00125 -0.000590625 0.154307184113
454 1 -0.021853125 -0.00125 0.000590625 0.183244607204
455 1 -0.021853125 -0.00125 0.001771875 0.224469737872
456 1 -0.021853125 -0.00125 0.002953125 0.224469737872
457 1 -0.021853125 -0.00125 0.004134375 0.263674497482
458 1 -0.021853125 -0.00125 0.005315625 0.303423296049
459 1 -0.021853125 -0.00125 0.006496875 0.219086517041
460 1 -0.021853125 -0.00125 0.007678125 0.114532075754
461 1 -0.021853125 -0.00125 0.008859375 0.0381872278205
462 1 -0.021853125 -0.00125 0.010040625 0.0199375166154
463 1 -0.021853125 -0.00125 0.011221875 0.0199375166154
464 1 -0.021853125 -0.00125 0.012403125 6.01557630165e-07
465 1 -0.021853125 -0.00125 0.013584375 0.0
466 1 -0.021853125 -0.00125 0.014765625 0.0
467 1 -0.021853125 -0.00125 0.015946875 0.0
468 1 -0.021853125 -0.00125 0.017128125 0.0138696939255
469 1 -0.021853125 -0.00125 0.018309375 0.482099736343
470 1 -0.021853125 -0.00125 0.019490625 0.00037578707255
471 1 -0.021853125 -0.00125 0.020671875 0.0
472 1 -0.021853125 -0.00125 0.021853125 0.0
473 1 -0.021853125 -0.00125 0.023034375 0.0
474 1 -0.021853125 -0.00125 0.024215625 0.0
475 1 -0.021853125 -0.00125 0.025396875 0.0
476 1 -0.021853125 -0.00125 0.026578125 0.0
477 1 -0.021853125 -0.00125 0.027759375 0.0
478 1 -0.021853125 -0.00125 0.028940625 0.0
479 1 -0.020671875 -0.00125 -0.030121875 0.0
480 1 -0.020671875 -0.00125 -0.028940625 0.0
481 1 -0.020671875 -0.00125 -0.027759375 0.0
482 1 -0.020671875 -0.00125 -0.026578125 0.0
483 1 -0.020671875 -0.00125 -0.025396875 0.0
484 1 -0.020671875 -0.00125 -0.024215625 0.0
485 1 -0.020671875 -0.00125 -0.023034375 1.74019667629e-11
486 1 -0.020671875 -0.00125 -0.021853125 0.0443322841124
487 1 -0.020671875 -0.00125 -0.020671875 0.175758893257
488 1 -0.020671875 -0.00125 -0.019490625 0.11175699854
489 1 -0.020671875 -0.00125 -0.018309375 4.42606186288e-05
490 1 -0.020671875 -0.00125 -0.017128125 0.0
491 1 -0.020671875 -0.00125 -0.015946875 0.0
492 1 -0.020671875 -0.00125 -0.014765625 6.01557630165e-07
493 1 -0.020671875 -0.00125 -0.013584375 0.0122342337434
494 1 -0.020671875 -0.00125 -0.012403125 0.010721438861
495 1 -0.020671875 -0.00125 -0.011221875 0.000299131636816
496 1 -0.020671875 -0.00125 -0.010040625 0.000126657572948
497 1 -0.020671875 -0.00125 -0.008859375 1.74019667629e-11
498 1 -0.020671875 -0.00125 -0.007678125 0.0
499 1 -0.020671875 -0.00125 -0.006496875 0.00025512885511
500 1 -0.020671875 -0.00125 -0.005315625 0.000891017573599
501 1 -0.020671875 -0.00125 -0.004134375 1.74019667629e-11
502 1 -0.020671875 -0.00125 -0.002953125 0.0
503 1 -0.020671875 -0.00125 -0.001771875 0.0
504 1 -0.020671875 -0.00125 -0.000590625 0.00154813293271
505 1 -0.020671875 -0.00125 0.000590625 0.00118682600863
506 1 -0.020671875 -0.00125 0.001771875 0.00668182974929
507 1 -0.020671875 -0.00125 0.002953125 0.00249557400626
508 1 -0.020671875 -0.00125 0.004134375 4.52220221462e-06
509 1 -0.020671875 -0.00125 0.005315625 0.000126657572948
510 1 -0.020671875 -0.00125 0.006496875 0.0844389823853
511 1 -0.020671875 -0.00125 0.007678125 0.123928325831
512 1 -0.020671875 -0.00125 0.008859375 0.196692716986
513 1 -0.020671875 -0.00125 0.010040625 0.0622852805866
514 1 -0.020671875 -0.00125 0.011221875 0.0443323240644
515 1 -0.020671875 -0.00125 0.012403125 0.000299131636816
516 1 -0.020671875 -0.00125 0.013584375 0.0
517 1 -0.020671875 -0.00125 0.014765625 1.74019667629e-11
518 1 -0.020671875 -0.00125 0.015946875 0.0
519 1 -0.020671875 -0.00125 0.017128125 0.0293069007767
520 1 -0.020671875 -0.00125 0.018309375 0.343471344865
521 1 -0.020671875 -0.00125 0.019490625 0.00284459309142
522 1 -0.020671875 -0.00125 0.020671875 0.0
523 1 -0.020671875 -0.00125 0.021853125 0.0
524 1 -0.020671875 -0.00125 0.023034375 0.0
525 1 -0.020671875 -0.00125 0.024215625 0.0
526 1 -0.020671875 -0.00125 0.025396875 0.0
527 1 -0.020671875 -0.00125 0.026578125 0.0
528 1 -0.020671875 -0.00125 0.027759375 0.0
529 1 -0.020671875 -0.00125 0.028940625 0.0
530 1 -0.020671875 -0.00125 0.030121875 0.0
531 1 -0.019490625 -0.00125 -0.031303125 0.0
532 1 -0.019490625 -0.00125 -0.030121875 0.0
533 1 -0.019490625 -0.00125 -0.028940625 0.0
534 1 -0.019490625 -0.00125 -0.027759375 0.0
535 1 -0.019490625 -0.00125 -0.026578125 1.05576710226e-06
536 1 -0.019490625 -0.00125 -0.025396875 0.000126658700522
537 1 -0.019490625 -0.00125 -0.024215625 0.000126656946521
538 1 -0.019490625 -0.00125 -0.023034375 0.000126658700522
539 1 -0.019490625 -0.00125 -0.021853125 0.00118682874801
540 1 -0.019490625 -0.00125 -0.020671875 0.0564721694534
541 1 -0.019490625 -0.00125 -0.019490625 0.13015003455
542 1 -0.019490625 -0.00125 -0.018309375 0.0955752819819
543 1 -0.019490625 -0.00125 -0.017128125 0.000126658199377
544 1 -0.019490625 -0.00125 -0.015946875 0.00118682737832
545 1 -0.019490625 -0.00125 -0.014765625 0.0335974296664
546 1 -0.019490625 -0.00125 -0.013584375 0.0114626109005
547 1 -0.019490625 -0.00125 -0.012403125 1.60797611259e-09
548 1 -0.019490625 -0.00125 -0.011221875 1.74019667629e-11
549 1 -0.019490625 -0.00125 -0.010040625 3.07879020573e-05
550 1 -0.019490625 -0.00125 -0.008859375 0.000255129503928
551 1 -0.019490625 -0.00125 -0.007678125 0.0199375253836
552 1 -0.019490625 -0.00125 -0.006496875 0.0114625855809
553 1 -0.019490625 -0.00125 -0.005315625 4.52221866893e-06
554 1 -0.019490625 -0.00125 -0.004134375 2.79378975481e-22
555 1 -0.019490625 -0.00125 -0.002953125 0.0
556 1 -0.019490625 -0.00125 -0.001771875 0.0
557 1 -0.019490625 -0.00125 -0.000590625 0.0
558 1 -0.019490625 -0.00125 0.000590625 1.92522499223e-60
559 1 -0.019490625 -0.00125 0.001771875 1.60797611259e-09
560 1 -0.019490625 -0.00125 0.002953125 1.77729209249e-06
561 1 -0.019490625 -0.00125 0.004134375 0.0
562 1 -0.019490625 -0.00125 0.005315625 0.0
563 1 -0.019490625 -0.00125 0.006496875 9.25291560019e-26
564 1 -0.019490625 -0.00125 0.007678125 1.74014005978e-11
565 1 -0.019490625 -0.00125 0.008859375 3.16243866997e-06
566 1 -0.019490625 -0.00125 0.010040625 1.77731074088e-06
567 1 -0.019490625 -0.00125 0.011221875 0.000741932169772
568 1 -0.019490625 -0.00125 0.012403125 0.0243767854583
569 1 -0.019490625 -0.00125 0.013584375 0.0138697507376
570 1 -0.019490625 -0.00125 0.014765625 0.000741931199387
571 1 -0.019490625 -0.00125 0.015946875 7.02299466978e-08
572 1 -0.019490625 -0.00125 0.017128125 0.00349873817525
573 1 -0.019490625 -0.00125 0.018309375 0.258189948267
574 1 -0.019490625 -0.00125 0.019490625 0.0122342535007
575 1 -0.019490625 -0.00125 0.020671875 0.000126658700522
576 1 -0.019490625 -0.00125 0.021853125 1.77729209249e-06
577 1 -0.019490625 -0.00125 0.023034375 1.5838087899e-05
578 1 -0.019490625 -0.00125 0.024215625 3.14925560351e-13
579 1 -0.019490625 -0.00125 0.025396875 0.0
580 1 -0.019490625 -0.00125 0.026578125 0.0
581 1 -0.019490625 -0.00125 0.027759375 0.0
582 1 -0.019490625 -0.00125 0.028940625 0.0
583 1 -0.019490625 -0.00125 0.030121875 0.0
584 1 -0.019490625 -0.00125 0.031303125 0.0
585 1 -0.018309375 -0.00125 -0.032484375 0.0
586 1 -0.018309375 -0.00125 -0.031303125 0.0
587 1 -0.018309375 -0.00125 -0.030121875 0.0
588 1 -0.018309375 -0.00125 -0.028940625 0.0
589 1 -0.018309375 -0.00125 -0.027759375 6.01557630165e-07
590 1 -0.018309375 -0.00125 -0.026578125 0.00284458672872
591 1 -0.018309375 -0.00125 -0.025396875 0.0138696939255
592 1 -0.018309375 -0.00125 -0.024215625 0.0138696939255
593 1 -0.018309375 -0.00125 -0.023034375 0.000126658700522
594 1 -0.018309375 -0.00125 -0.021853125 0.0443322841124
595 1 -0.018309375 -0.00125 -0.020671875 0.0293069007767
596 1 -0.018309375 -0.00125 -0.019490625 0.0187026692579
597 1 -0.018309375 -0.00125 -0.018309375 0.123928325831
598 1 -0.018309375 -0.00125 -0.017128125 0.123928325831
599 1 -0.018309375 -0.00125 -0.015946875 0.203052015623
600 1 -0.018309375 -0.00125 -0.014765625 0.0827704828178
601 1 -0.018309375 -0.00125 -0.013584375 3.14925560351e-13
602 1 -0.018309375 -0.00125 -0.012403125 0.0
603 1 -0.018309375 -0.00125 -0.011221875 1.22156214432e-15
604 1 -0.018309375 -0.00125 -0.010040625 0.0243767756543
605 1 -0.018309375 -0.00125 -0.008859375 0.0912339065983
606 1 -0.018309375 -0.00125 -0.007678125 0.0622852495443
607 1 -0.018309375 -0.00125 -0.006496875 0.000126656946521
608 1 -0.018309375 -0.00125 -0.005315625 0.0
609 1 -0.018309375 -0.00125 -0.004134375 0.0
610 1 -0.018309375 -0.00125 -0.002953125 0.000126658700522
611 1 -0.018309375 -0.00125 -0.001771875 0.0243767952624