ITEM: TIMESTEP
0
ITEM: NUMBER OF ATOMS
3080
ITEM: BOX BOUNDS ss ss ss
-3.7007399999999996e-02 3.7007399999999996e-02
-2.0002499999999999e-03 2.5000000000000004e-07
-3.7007399999999996e-02 3.7007399999999996e-02
ITEM: ATOMS id type x y z c_1
0 1 -0.037209375 -0.00125 -0.000590625 1.0
1 1 -0.036028125 -0.00125 -0.007678125 0.00920066229086
2 1 -0.036028125 -0.00125 -0.006496875 0.0
3 1 -0.036028125 -0.00125 -0.005315625 0.0
4 1 -0.036028125 -0.00125 -0.004134375 0.0
5 1 -0.036028125 -0.00125 -0.002953125 0.226627684957
6 1 -0.036028125 -0.00125 -0.001771875 0.363557415777
7 1 -0.036028125 -0.00125 -0.000590625 0.0418564289367
8 1 -0.036028125 -0.00125 0.000590625 3.10597260944e-07
9 1 -0.036028125 -0.00125 0.001771875 3.70458005324e-08
10 1 -0.036028125 -0.00125 0.002953125 0.0
11 1 -0.036028125 -0.00125 0.004134375 0.0
12 1 -0.036028125 -0.00125 0.005315625 0.0
13 1 -0.036028125 -0.00125 0.006496875 0.0
14 1 -0.036028125 -0.00125 0.007678125 0.0
15 1 -0.034846875 -0.00125 -0.011221875 0.00920066229086
16 1 -0.034846875 -0.00125 -0.010040625 0.0
17 1 -0.034846875 -0.00125 -0.008859375 0.182529172436
18 1 -0.034846875 -0.00125 -0.007678125 0.112788508618
19 1 -0.034846875 -0.00125 -0.006496875 0.0
20 1 -0.034846875 -0.00125 -0.005315625 0.0
21 1 -0.034846875 -0.00125 -0.004134375 0.0
22 1 -0.034846875 -0.00125 -0.002953125 0.01386971523
23 1 -0.034846875 -0.00125 -0.001771875 0.292342717184
24 1 -0.034846875 -0.00125 -0.000590625 0.091233852548
25 1 -0.034846875 -0.00125 0.000590625 0.0
26 1 -0.034846875 -0.00125 0.001771875 0.0
27 1 -0.034846875 -0.00125 0.002953125 0.0
28 1 -0.034846875 -0.00125 0.004134375 0.0
29 1 -0.034846875 -0.00125 0.005315625 0.0
30 1 -0.034846875 -0.00125 0.006496875 0.0
31 1 -0.034846875 -0.00125 0.007678125 0.0
32 1 -0.034846875 -0.00125 0.008859375 0.00106278235535
33 1 -0.034846875 -0.00125 0.010040625 0.0
34 1 -0.034846875 -0.00125 0.011221875 0.0
35 1 -0.033665625 -0.00125 -0.013584375 5.72529236729e-05
36 1 -0.033665625 -0.00125 -0.012403125 0.320687946562
37 1 -0.033665625 -0.00125 -0.011221875 0.112788508618
38 1 -0.033665625 -0.00125 -0.010040625 0.0
39 1 -0.033665625 -0.00125 -0.008859375 0.14929428164
40 1 -0.033665625 -0.00125 -0.007678125 0.123928325831
41 1 -0.033665625 -0.00125 -0.006496875 0.0
42 1 -0.033665625 -0.00125 -0.005315625 0.0
43 1 -0.033665625 -0.00125 -0.004134375 6.01557630165e-07
44 1 -0.033665625 -0.00125 -0.002953125 0.00668182974929
45 1 -0.033665625 -0.00125 -0.001771875 0.274673763196
46 1 -0.033665625 -0.00125 -0.000590625 0.14929428164
47 1 -0.033665625 -0.00125 0.000590625 1.28754471296e-08
48 1 -0.033665625 -0.00125 0.001771875 0.0
49 1 -0.033665625 -0.00125 0.002953125 0.0
50 1 -0.033665625 -0.00125 0.004134375 0.0
51 1 -0.033665625 -0.00125 0.005315625 0.0
52 1 -0.033665625 -0.00125 0.006496875 0.0
53 1 -0.033665625 -0.00125 0.007678125 0.0
54 1 -0.033665625 -0.00125 0.008859375 0.00154813293271
55 1 -0.033665625 -0.00125 0.010040625 0.00154813293271
56 1 -0.033665625 -0.00125 0.011221875 0.0
57 1 -0.033665625 -0.00125 0.012403125 0.0
58 1 -0.033665625 -0.00125 0.013584375 0.0
59 1 -0.032484375 -0.00125 -0.018309375 0.000455413315469
60 1 -0.032484375 -0.00125 -0.017128125 0.0075399670332
61 1 -0.032484375 -0.00125 -0.015946875 0.00960427874033
62 1 -0.032484375 -0.00125 -0.014765625 0.0479831714942
63 1 -0.032484375 -0.00125 -0.013584375 0.000263126337833
64 1 -0.032484375 -0.00125 -0.012403125 0.136454910525
65 1 -0.032484375 -0.00125 -0.011221875 0.352395273755
66 1 -0.032484375 -0.00125 -0.010040625 1.77729209249e-06
67 1 -0.032484375 -0.00125 -0.008859375 0.0802910104399
68 1 -0.032484375 -0.00125 -0.007678125 0.266970044988
69 1 -0.032484375 -0.00125 -0.006496875 1.10098679017e-07
70 1 -0.032484375 -0.00125 -0.005315625 0.0
71 1 -0.032484375 -0.00125 -0.004134375 2.79378975481e-22
72 1 -0.032484375 -0.00125 -0.002953125 7.02299466978e-08
73 1 -0.032484375 -0.00125 -0.001771875 0.0098718633607
74 1 -0.032484375 -0.00125 -0.000590625 0.210511756665
75 1 -0.032484375 -0.00125 0.000590625 0.0207857212663
76 1 -0.032484375 -0.00125 0.001771875 1.74019667629e-11
77 1 -0.032484375 -0.00125 0.002953125 0.0
78 1 -0.032484375 -0.00125 0.004134375 0.0
79 1 -0.032484375 -0.00125 0.005315625 0.0
80 1 -0.032484375 -0.00125 0.006496875 0.0
81 1 -0.032484375 -0.00125 0.007678125 1.28754471296e-08
82 1 -0.032484375 -0.00125 0.008859375 0.00228022268595
83 1 -0.032484375 -0.00125 0.010040625 0.00284458418363
84 1 -0.032484375 -0.00125 0.011221875 1.74014005978e-11
85 1 -0.032484375 -0.00125 0.012403125 3.14925560351e-13
86 1 -0.032484375 -0.00125 0.013584375 4.96854669321e-05
87 1 -0.032484375 -0.00125 0.014765625 0.0
88 1 -0.032484375 -0.00125 0.015946875 0.0
89 1 -0.032484375 -0.00125 0.017128125 0.0
90 1 -0.032484375 -0.00125 0.018309375 0.0
91 1 -0.031303125 -0.00125 -0.019490625 0.0674375506883
92 1 -0.031303125 -0.00125 -0.018309375 0.00147479831613
93 1 -0.031303125 -0.00125 -0.017128125 1.74019667629e-11
94 1 -0.031303125 -0.00125 -0.015946875 1.74019667629e-11
95 1 -0.031303125 -0.00125 -0.014765625 0.0175125891118
96 1 -0.031303125 -0.00125 -0.013584375 7.02293809892e-08
97 1 -0.031303125 -0.00125 -0.012403125 0.00474645121499
98 1 -0.031303125 -0.00125 -0.011221875 0.339012100871
99 1 -0.031303125 -0.00125 -0.010040625 0.091233852548
100 1 -0.031303125 -0.00125 -0.008859375 0.224469737872
101 1 -0.031303125 -0.00125 -0.007678125 0.21372123369
102 1 -0.031303125 -0.00125 -0.006496875 1.68588419471e-07
103 1 -0.031303125 -0.00125 -0.005315625 0.0
104 1 -0.031303125 -0.00125 -0.004134375 1.74019667629e-11
105 1 -0.031303125 -0.00125 -0.002953125 1.74019667629e-11
106 1 -0.031303125 -0.00125 -0.001771875 4.52220221462e-06
107 1 -0.031303125 -0.00125 -0.000590625 0.0347170643937
108 1 -0.031303125 -0.00125 0.000590625 0.0364315046602
109 1 -0.031303125 -0.00125 0.001771875 0.0
110 1 -0.031303125 -0.00125 0.002953125 0.0
111 1 -0.031303125 -0.00125 0.004134375 0.0
112 1 -0.031303125 -0.00125 0.005315625 0.0
113 1 -0.031303125 -0.00125 0.006496875 0.0
114 1 -0.031303125 -0.00125 0.007678125 4.52220221462e-06
115 1 -0.031303125 -0.00125 0.008859375 0.0443322841124
116 1 -0.031303125 -0.00125 0.010040625 0.186171540908
117 1 -0.031303125 -0.00125 0.011221875 0.0698876476892
118 1 -0.031303125 -0.00125 0.012403125 0.0243767756543
119 1 -0.031303125 -0.00125 0.013584375 0.0187026608024
120 1 -0.031303125 -0.00125 0.014765625 1.74019667629e-11
121 1 -0.031303125 -0.00125 0.015946875 0.0
122 1 -0.031303125 -0.00125 0.017128125 0.0
123 1 -0.031303125 -0.00125 0.018309375 0.0
124 1 -0.031303125 -0.00125 0.019490625 0.0
125 1 -0.030121875 -0.00125 -0.020671875 0.00466864259094
126 1 -0.030121875 -0.00125 -0.019490625 0.101138654201
127 1 -0.030121875 -0.00125 -0.018309375 0.00474645121499
128 1 -0.030121875 -0.00125 -0.017128125 6.01557630165e-07
129 1 -0.030121875 -0.00125 -0.015946875 0.0
130 1 -0.030121875 -0.00125 -0.014765625 4.52220221462e-06
131 1 -0.030121875 -0.00125 -0.013584375 1.74019667629e-11
132 1 -0.030121875 -0.00125 -0.012403125 1.22156214432e-15
133 1 -0.030121875 -0.00125 -0.011221875 0.000126658700522
134 1 -0.030121875 -0.00125 -0.010040625 0.123928325831
135 1 -0.030121875 -0.00125 -0.008859375 0.091233852548
136 1 -0.030121875 -0.00125 -0.007678125 0.0622852495443
137 1 -0.030121875 -0.00125 -0.006496875 1.28754471296e-08
138 1 -0.030121875 -0.00125 -0.005315625 0.0
139 1 -0.030121875 -0.00125 -0.004134375 1.74019667629e-11
140 1 -0.030121875 -0.00125 -0.002953125 1.74019667629e-11
141 1 -0.030121875 -0.00125 -0.001771875 1.74019667629e-11
142 1 -0.030121875 -0.00125 -0.000590625 1.74019667629e-11
143 1 -0.030121875 -0.00125 0.000590625 1.74019667629e-11
144 1 -0.030121875 -0.00125 0.001771875 0.0
145 1 -0.030121875 -0.00125 0.002953125 0.0
146 1 -0.030121875 -0.00125 0.004134375 0.0
147 1 -0.030121875 -0.00125 0.005315625 0.0
148 1 -0.030121875 -0.00125 0.006496875 2.79378975481e-22
149 1 -0.030121875 -0.00125 0.007678125 6.01557630165e-07
150 1 -0.030121875 -0.00125 0.008859375 0.0509111013046
151 1 -0.030121875 -0.00125 0.010040625 0.21372123369
152 1 -0.030121875 -0.00125 0.011221875 0.091233852548
153 1 -0.030121875 -0.00125 0.012403125 0.0443323240644
154 1 -0.030121875 -0.00125 0.013584375 0.000126657322377
155 1 -0.030121875 -0.00125 0.014765625 0.0
156 1 -0.030121875 -0.00125 0.015946875 0.0
157 1 -0.030121875 -0.00125 0.017128125 0.0
158 1 -0.030121875 -0.00125 0.018309375 0.0
159 1 -0.030121875 -0.00125 0.019490625 0.0
160 1 -0.030121875 -0.00125 0.020671875 0.0
161 1 -0.028940625 -0.00125 -0.021853125 0.0
162 1 -0.028940625 -0.00125 -0.020671875 1.18026294841e-10
163 1 -0.028940625 -0.00125 -0.019490625 0.146305628696
164 1 -0.028940625 -0.00125 -0.018309375 0.186171540908
165 1 -0.028940625 -0.00125 -0.017128125 0.000126657572948
166 1 -0.028940625 -0.00125 -0.015946875 0.0
167 1 -0.028940625 -0.00125 -0.014765625 0.0
168 1 -0.028940625 -0.00125 -0.013584375 0.0
169 1 -0.028940625 -0.00125 -0.012403125 0.0
170 1 -0.028940625 -0.00125 -0.011221875 0.0
171 1 -0.028940625 -0.00125 -0.010040625 1.74019667629e-11
172 1 -0.028940625 -0.00125 -0.008859375 0.00154813293271
173 1 -0.028940625 -0.00125 -0.007678125 4.52220221462e-06
174 1 -0.028940625 -0.00125 -0.006496875 0.0
175 1 -0.028940625 -0.00125 -0.005315625 0.0
176 1 -0.028940625 -0.00125 -0.004134375 0.0
177 1 -0.028940625 -0.00125 -0.002953125 4.52220221462e-06
178 1 -0.028940625 -0.00125 -0.001771875 0.000299131636816
179 1 -0.028940625 -0.00125 -0.000590625 0.00249557400626
180 1 -0.028940625 -0.00125 0.000590625 0.000299131636816
181 1 -0.028940625 -0.00125 0.001771875 4.52220221462e-06
182 1 -0.028940625 -0.00125 0.002953125 1.74019667629e-11
183 1 -0.028940625 -0.00125 0.004134375 1.74019667629e-11
184 1 -0.028940625 -0.00125 0.005315625 1.74019667629e-11
185 1 -0.028940625 -0.00125 0.006496875 7.02299466978e-08
186 1 -0.028940625 -0.00125 0.007678125 4.42606186288e-05
187 1 -0.028940625 -0.00125 0.008859375 0.203051971158
188 1 -0.028940625 -0.00125 0.010040625 0.196692230435
189 1 -0.028940625 -0.00125 0.011221875 0.0443323240644
190 1 -0.028940625 -0.00125 0.012403125 0.0243767952624
191 1 -0.028940625 -0.00125 0.013584375 3.14925560351e-13
192 1 -0.028940625 -0.00125 0.014765625 0.0
193 1 -0.028940625 -0.00125 0.015946875 0.0
194 1 -0.028940625 -0.00125 0.017128125 0.0
195 1 -0.028940625 -0.00125 0.018309375 0.000126658700522
196 1 -0.028940625 -0.00125 0.019490625 0.0
197 1 -0.028940625 -0.00125 0.020671875 0.0
198 1 -0.028940625 -0.00125 0.021853125 0.0
199 1 -0.027759375 -0.00125 -0.024215625 0.0
200 1 -0.027759375 -0.00125 -0.023034375 0.0
201 1 -0.027759375 -0.00125 -0.021853125 0.0
202 1 -0.027759375 -0.00125 -0.020671875 0.0
203 1 -0.027759375 -0.00125 -0.019490625 0.123928365601
204 1 -0.027759375 -0.00125 -0.018309375 0.263674497482
205 1 -0.027759375 -0.00125 -0.017128125 4.52227625942e-06
206 1 -0.027759375 -0.00125 -0.015946875 0.0
207 1 -0.027759375 -0.00125 -0.014765625 0.0
208 1 -0.027759375 -0.00125 -0.013584375 0.0
209 1 -0.027759375 -0.00125 -0.012403125 0.0
210 1 -0.027759375 -0.00125 -0.011221875 0.0
211 1 -0.027759375 -0.00125 -0.010040625 0.0
212 1 -0.027759375 -0.00125 -0.008859375 0.0
213 1 -0.027759375 -0.00125 -0.007678125 0.0
214 1 -0.027759375 -0.00125 -0.006496875 0.0
215 1 -0.027759375 -0.00125 -0.005315625 0.0
216 1 -0.027759375 -0.00125 -0.004134375 0.0
217 1 -0.027759375 -0.00125 -0.002953125 4.52220221462e-06
218 1 -0.027759375 -0.00125 -0.001771875 0.000299131636816
219 1 -0.027759375 -0.00125 -0.000590625 0.0048855177979
220 1 -0.027759375 -0.00125 0.000590625 0.000299131636816
221 1 -0.027759375 -0.00125 0.001771875 0.000299131636816
222 1 -0.027759375 -0.00125 0.002953125 0.00249557400626
223 1 -0.027759375 -0.00125 0.004134375 0.00906545268845
224 1 -0.027759375 -0.00125 0.005315625 0.000299131636816
225 1 -0.027759375 -0.00125 0.006496875 0.0128736434339
226 1 -0.027759375 -0.00125 0.007678125 0.0443322841124
227 1 -0.027759375 -0.00125 0.008859375 0.27026908404
228 1 -0.027759375 -0.00125 0.010040625 0.114532075754
229 1 -0.027759375 -0.00125 0.011221875 0.00154813293271
230 1 -0.027759375 -0.00125 0.012403125 0.00474645121499
231 1 -0.027759375 -0.00125 0.013584375 1.58379826604e-05
232 1 -0.027759375 -0.00125 0.014765625 6.01557630165e-07
233 1 -0.027759375 -0.00125 0.015946875 0.000126658700522
234 1 -0.027759375 -0.00125 0.017128125 6.01557630165e-07
235 1 -0.027759375 -0.00125 0.018309375 0.000126658700522
236 1 -0.027759375 -0.00125 0.019490625 1.28754471296e-08
237 1 -0.027759375 -0.00125 0.020671875 0.0
238 1 -0.027759375 -0.00125 0.021853125 0.0
239 1 -0.027759375 -0.00125 0.023034375 0.0
240 1 -0.027759375 -0.00125 0.024215625 0.0
241 1 -0.026578125 -0.00125 -0.026578125 0.0
242 1 -0.026578125 -0.00125 -0.025396875 0.0
243 1 -0.026578125 -0.00125 -0.024215625 0.0
244 1 -0.026578125 -0.00125 -0.023034375 0.0
245 1 -0.026578125 -0.00125 -0.021853125 0.0
246 1 -0.026578125 -0.00125 -0.020671875 0.0
247 1 -0.026578125 -0.00125 -0.019490625 0.287918489043
248 1 -0.026578125 -0.00125 -0.018309375 0.154307310461
249 1 -0.026578125 -0.00125 -0.017128125 0.000198679956635
250 1 -0.026578125 -0.00125 -0.015946875 7.02299466978e-08
251 1 -0.026578125 -0.00125 -0.014765625 0.0
252 1 -0.026578125 -0.00125 -0.013584375 0.0
253 1 -0.026578125 -0.00125 -0.012403125 0.0
254 1 -0.026578125 -0.00125 -0.011221875 0.0
255 1 -0.026578125 -0.00125 -0.010040625 0.0
256 1 -0.026578125 -0.00125 -0.008859375 0.0
257 1 -0.026578125 -0.00125 -0.007678125 0.0
258 1 -0.026578125 -0.00125 -0.006496875 0.0
259 1 -0.026578125 -0.00125 -0.005315625 0.0
260 1 -0.026578125 -0.00125 -0.004134375 0.0
261 1 -0.026578125 -0.00125 -0.002953125 0.0
262 1 -0.026578125 -0.00125 -0.001771875 0.0
263 1 -0.026578125 -0.00125 -0.000590625 0.0
264 1 -0.026578125 -0.00125 0.000590625 2.79378975481e-22
265 1 -0.026578125 -0.00125 0.001771875 3.07878012444e-05
266 1 -0.026578125 -0.00125 0.002953125 0.000741932169772
267 1 -0.026578125 -0.00125 0.004134375 0.000198679422043
268 1 -0.026578125 -0.00125 0.005315625 1.77728463318e-06
269 1 -0.026578125 -0.00125 0.006496875 0.00109153796588
270 1 -0.026578125 -0.00125 0.007678125 0.159358746116
271 1 -0.026578125 -0.00125 0.008859375 0.21908624719
272 1 -0.026578125 -0.00125 0.010040625 0.00228022595935
273 1 -0.026578125 -0.00125 0.011221875 0.00565998798415
274 1 -0.026578125 -0.00125 0.012403125 0.0912341047824
275 1 -0.026578125 -0.00125 0.013584375 0.0782468804233
276 1 -0.026578125 -0.00125 0.014765625 0.0529663073376
277 1 -0.026578125 -0.00125 0.015946875 0.00474647462745
278 1 -0.026578125 -0.00125 0.017128125 1.5838087899e-05
279 1 -0.026578125 -0.00125 0.018309375 7.69890035527e-05
280 1 -0.026578125 -0.00125 0.019490625 2.0963737341e-10
281 1 -0.026578125 -0.00125 0.020671875 0.0
282 1 -0.026578125 -0.00125 0.021853125 0.0
283 1 -0.026578125 -0.00125 0.023034375 0.0
284 1 -0.026578125 -0.00125 0.024215625 0.0
285 1 -0.026578125 -0.00125 0.025396875 0.0
286 1 -0.026578125 -0.00125 0.026578125 0.0
287 1 -0.025396875 -0.00125 -0.026578125 0.0
288 1 -0.025396875 -0.00125 -0.025396875 0.0
289 1 -0.025396875 -0.00125 -0.024215625 0.0
290 1 -0.025396875 -0.00125 -0.023034375 0.0
291 1 -0.025396875 -0.00125 -0.021853125 0.0
292 1 -0.025396875 -0.00125 -0.020671875 1.22156214432e-15
293 1 -0.025396875 -0.00125 -0.019490625 0.310082079515
294 1 -0.025396875 -0.00125 -0.018309375 0.123928325831
295 1 -0.025396875 -0.00125 -0.017128125 0.00668182974929
296 1 -0.025396875 -0.00125 -0.015946875 1.74019667629e-11
297 1 -0.025396875 -0.00125 -0.014765625 0.0
298 1 -0.025396875 -0.00125 -0.013584375 0.0
299 1 -0.025396875 -0.00125 -0.012403125 0.0
300 1 -0.025396875 -0.00125 -0.011221875 0.0
301 1 -0.025396875 -0.00125 -0.010040625 0.0
302 1 -0.025396875 -0.00125 -0.008859375 0.0
303 1 -0.025396875 -0.00125 -0.007678125 0.0
304 1 -0.025396875 -0.00125 -0.006496875 0.0
305 1 -0.025396875 -0.00125 -0.005315625 0.0
306 1 -0.025396875 -0.00125 -0.004134375 0.0
307 1 -0.025396875 -0.00125 -0.002953125 0.0
308 1 -0.025396875 -0.00125 -0.001771875 0.0
309 1 -0.025396875 -0.00125 -0.000590625 2.79378975481e-22
310 1 -0.025396875 -0.00125 0.000590625 1.74019667629e-11
311 1 -0.025396875 -0.00125 0.001771875 0.0
312 1 -0.025396875 -0.00125 0.002953125 0.0
313 1 -0.025396875 -0.00125 0.004134375 0.0
314 1 -0.025396875 -0.00125 0.005315625 0.0
315 1 -0.025396875 -0.00125 0.006496875 1.28754471296e-08
316 1 -0.025396875 -0.00125 0.007678125 0.361324541927
317 1 -0.025396875 -0.00125 0.008859375 0.339012100871
318 1 -0.025396875 -0.00125 0.010040625 0.000126658700522
319 1 -0.025396875 -0.00125 0.011221875 0.0138696939255
320 1 -0.025396875 -0.00125 0.012403125 0.14929428164
321 1 -0.025396875 -0.00125 0.013584375 0.0475687797882
322 1 -0.025396875 -0.00125 0.014765625 0.0138696939255
323 1 -0.025396875 -0.00125 0.015946875 0.000126658700522
324 1 -0.025396875 -0.00125 0.017128125 1.74019667629e-11
325 1 -0.025396875 -0.00125 0.018309375 0.000126658700522
326 1 -0.025396875 -0.00125 0.019490625 1.28754471296e-08
327 1 -0.025396875 -0.00125 0.020671875 0.0
328 1 -0.025396875 -0.00125 0.021853125 0.0
329 1 -0.025396875 -0.00125 0.023034375 0.0
330 1 -0.025396875 -0.00125 0.024215625 0.0
331 1 -0.025396875 -0.00125 0.025396875 0.0
332 1 -0.025396875 -0.00125 0.026578125 0.0
333 1 -0.024215625 -0.00125 -0.027759375 0.0
334 1 -0.024215625 -0.00125 -0.026578125 2.79378975481e-22
335 1 -0.024215625 -0.00125 -0.025396875 1.74019667629e-11
336 1 -0.024215625 -0.00125 -0.024215625 0.0
337 1 -0.024215625 -0.00125 -0.023034375 0.0
338 1 -0.024215625 -0.00125 -0.021853125 0.0
339 1 -0.024215625 -0.00125 -0.020671875 1.22156214432e-15
340 1 -0.024215625 -0.00125 -0.019490625 0.186171540908
341 1 -0.024215625 -0.00125 -0.018309375 0.459723333625
342 1 -0.024215625 -0.00125 -0.017128125 0.00474644221021
343 1 -0.024215625 -0.00125 -0.015946875 0.0
344 1 -0.024215625 -0.00125 -0.014765625 0.0
345 1 -0.024215625 -0.00125 -0.013584375 0.0
346 1 -0.024215625 -0.00125 -0.012403125 0.0
347 1 -0.024215625 -0.00125 -0.011221875 0.0
348 1 -0.024215625 -0.00125 -0.010040625 0.0
349 1 -0.024215625 -0.00125 -0.008859375 0.0
350 1 -0.024215625 -0.00125 -0.007678125 0.0
351 1 -0.024215625 -0.00125 -0.006496875 1.77729209249e-06
352 1 -0.024215625 -0.00125 -0.005315625 0.000126657572948
353 1 -0.024215625 -0.00125 -0.004134375 1.74019667629e-11
354 1 -0.024215625 -0.00125 -0.002953125 1.74019667629e-11
355 1 -0.024215625 -0.00125 -0.001771875 0.000299132858986
356 1 -0.024215625 -0.00125 -0.000590625 0.00734858779095
357 1 -0.024215625 -0.00125 0.000590625 0.0243767756543
358 1 -0.024215625 -0.00125 0.001771875 0.00668182974929
359 1 -0.024215625 -0.00125 0.002953125 0.00154812961495
360 1 -0.024215625 -0.00125 0.004134375 0.000299131636816
361 1 -0.024215625 -0.00125 0.005315625 1.74019667629e-11
362 1 -0.024215625 -0.00125 0.006496875 7.6989341285e-05
363 1 -0.024215625 -0.00125 0.007678125 0.470910984646
364 1 -0.024215625 -0.00125 0.008859375 0.175758979902
365 1 -0.024215625 -0.00125 0.010040625 0.0243767756543
366 1 -0.024215625 -0.00125 0.011221875 0.159358746116
367 1 -0.024215625 -0.00125 0.012403125 0.321195978177
368 1 -0.024215625 -0.00125 0.013584375 0.0138697507376
369 1 -0.024215625 -0.00125 0.014765625 0.00154813293271
370 1 -0.024215625 -0.00125 0.015946875 0.00474645121499
371 1 -0.024215625 -0.00125 0.017128125 0.000126658700522
372 1 -0.024215625 -0.00125 0.018309375 0.000126658700522
373 1 -0.024215625 -0.00125 0.019490625 0.000535658751952
374 1 -0.024215625 -0.00125 0.020671875 0.0
375 1 -0.024215625 -0.00125 0.021853125 0.0
376 1 -0.024215625 -0.00125 0.023034375 0.0
377 1 -0.024215625 -0.00125 0.024215625 0.0
378 1 -0.024215625 -0.00125 0.025396875 0.0
379 1 -0.024215625 -0.00125 0.026578125 0.0
380 1 -0.024215625 -0.00125 0.027759375 0.0
381 1 -0.023034375 -0.00125 -0.027759375 0.00106278235535
382 1 -0.023034375 -0.00125 -0.026578125 0.00349873817525
383 1 -0.023034375 -0.00125 -0.025396875 0.000126658700522
384 1 -0.023034375 -0.00125 -0.024215625 0.000126658700522
385 1 -0.023034375 -0.00125 -0.023034375 6.01557630165e-07
386 1 -0.023034375 -0.00125 -0.021853125 1.74019667629e-11
387 1 -0.023034375 -0.00125 -0.020671875 0.0
388 1 -0.023034375 -0.00125 -0.019490625 0.126789227943
389 1 -0.023034375 -0.00125 -0.018309375 0.685474509568
390 1 -0.023034375 -0.00125 -0.017128125 0.0622852805866
391 1 -0.023034375 -0.00125 -0.015946875 0.0
392 1 -0.023034375 -0.00125 -0.014765625 0.0
393 1 -0.023034375 -0.00125 -0.013584375 2.79378975481e-22
394 1 -0.023034375 -0.00125 -0.012403125 4.52220221462e-06
395 1 -0.023034375 -0.00125 -0.011221875 0.0
396 1 -0.023034375 -0.00125 -0.010040625 1.22156214432e-15
397 1 -0.023034375 -0.00125 -0.008859375 0.00154813293271
398 1 -0.023034375 -0.00125 -0.007678125 0.0199375166154
399 1 -0.023034375 -0.00125 -0.006496875 0.0529663073376
400 1 -0.023034375 -0.00125 -0.005315625 0.0347170643937
401 1 -0.023034375 -0.00125 -0.004134375 0.0698876476892
402 1 -0.023034375 -0.00125 -0.002953125 0.123928325831
403 1 -0.023034375 -0.00125 -0.001771875 0.159358746116
404 1 -0.023034375 -0.00125 -0.000590625 0.111757037096
405 1 -0.023034375 -0.00125 0.000590625 0.0243767756543
406 1 -0.023034375 -0.00125 0.001771875 0.0243767756543
407 1 -0.023034375 -0.00125 0.002953125 0.0243767756543
408 1 -0.023034375 -0.00125 0.004134375 0.0138696939255
409 1 -0.023034375 -0.00125 0.005315625 4.52227625942e-06
410 1 -0.023034375 -0.00125 0.006496875 0.00118683011771
411 1 -0.023034375 -0.00125 0.007678125 0.175758979902
412 1 -0.023034375 -0.00125 0.008859375 0.241806863156
413 1 -0.023034375 -0.00125 0.010040625 0.350163267536
414 1 -0.023034375 -0.00125 0.011221875 0.482099221396
415 1 -0.023034375 -0.00125 0.012403125 0.224469737872
416 1 -0.023034375 -0.00125 0.013584375 0.0085515641959
417 1 -0.023034375 -0.00125 0.014765625 0.0138696939255
418 1 -0.023034375 -0.00125 0.015946875 0.000126658700522
419 1 -0.023034375 -0.00125 0.017128125 0.000891023127979
420 1 -0.023034375 -0.00125 0.018309375 0.00154813293271
421 1 -0.023034375 -0.00125 0.019490625 0.000126658700522
422 1 -0.023034375 -0.00125 0.020671875 0.0
423 1 -0.023034375 -0.00125 0.021853125 0.0
424 1 -0.023034375 -0.00125 0.023034375 0.0
425 1 -0.023034375 -0.00125 0.024215625 1.22156214432e-15
426 1 -0.023034375 -0.00125 0.025396875 0.0
427 1 -0.023034375 -0.00125 0.026578125 0.0
428 1 -0.023034375 -0.00125 0.027759375 0.00106278235535
429 1 -0.021853125 -0.00125 -0.028940625 0.0225621152214
430 1 -0.021853125 -0.00125 -0.027759375 0.0394161020542
431 1 -0.021853125 -0.00125 -0.026578125 0.0156289295152
432 1 -0.021853125 -0.00125 -0.025396875 0.0293069007767
433 1 -0.021853125 -0.00125 -0.024215625 0.00474645121499
434 1 -0.021853125 -0.00125 -0.023034375 0.00154813293271
435 1 -0.021853125 -0.00125 -0.021853125 0.000126658700522
436 1 -0.021853125 -0.00125 -0.020671875 0.0
437 1 -0.021853125 -0.00125 -0.019490625 0.154307563157
438 1 -0.021853125 -0.00125 -0.018309375 0.546989058137
439 1 -0.021853125 -0.00125 -0.017128125 0.0827704306511
440 1 -0.021853125 -0.00125 -0.015946875 1.74019667629e-11
441 1 -0.021853125 -0.00125 -0.014765625 6.01557630165e-07
442 1 -0.021853125 -0.00125 -0.013584375 0.0412042250543
443 1 -0.021853125 -0.00125 -0.012403125 0.186171540908
444 1 -0.021853125 -0.00125 -0.011221875 0.114532075754
445 1 -0.021853125 -0.00125 -0.010040625 0.0827704828178
446 1 -0.021853125 -0.00125 -0.008859375 0.0964521350783
447 1 -0.021853125 -0.00125 -0.007678125 0.21372123369
448 1 -0.021853125 -0.00125 -0.006496875 0.196692451595
449 1 -0.021853125 -0.00125 -0.005315625 0.235286796702
450 1 -0.021853125 -0.00125 -0.004134375 0.332326556717
451 1 -0.021853125 -0.00125 -0.002953125 0.430635345024
452 1 -0.021853125 -0.00125 -0.001771875 0.252716464147
453 1 -0.021853125 -0.00125 -0.000590625 0.119202686097
454 1 -0.021853125 -0.00125 0.000590625 0.000126658700522
455 1 -0.021853125 -0.00125 0.001771875 6.01557630165e-07
456 1 -0.021853125 -0.00125 0.002953125 0.00154812961495
457 1 -0.021853125 -0.00125 0.004134375 0.0293069224194
458 1 -0.021853125 -0.00125 0.005315625 0.000891017573599
459 1 -0.021853125 -0.00125 0.006496875 1.58378774223e-05
460 1 -0.021853125 -0.00125 0.007678125 0.430635859907
461 1 -0.021853125 -0.00125 0.008859375 0.529089062167
462 1 -0.021853125 -0.00125 0.010040625 0.689917920485
463 1 -0.021853125 -0.00125 0.011221875 0.430635859907
464 1 -0.021853125 -0.00125 0.012403125 0.0443322841124
465 1 -0.021853125 -0.00125 0.013584375 0.0085515641959
466 1 -0.021853125 -0.00125 0.014765625 0.0138696939255
467 1 -0.021853125 -0.00125 0.015946875 0.0138696939255
468 1 -0.021853125 -0.00125 0.017128125 0.00154813293271
469 1 -0.021853125 -0.00125 0.018309375 0.00474645121499
470 1 -0.021853125 -0.00125 0.019490625 0.0698874523288
471 1 -0.021853125 -0.00125 0.020671875 0.091233852548
472 1 -0.021853125 -0.00125 0.021853125 0.091233852548
473 1 -0.021853125 -0.00125 0.023034375 0.091233852548
474 1 -0.021853125 -0.00125 0.024215625 0.114532075754
475 1 -0.021853125 -0.00125 0.025396875 0.175758893257
476 1 -0.021853125 -0.00125 0.026578125 0.0564723182317
477 1 -0.021853125 -0.00125 0.027759375 0.0883131183637
478 1 -0.021853125 -0.00125 0.028940625 0.0904523633156
479 1 -0.020671875 -0.00125 -0.030121875 0.0225621152214
480 1 -0.020671875 -0.00125 -0.028940625 0.000245540111831
481 1 -0.020671875 -0.00125 -0.027759375 0.000299132858986
482 1 -0.020671875 -0.00125 -0.026578125 0.000535662176186
483 1 -0.020671875 -0.00125 -0.025396875 0.0293069007767
484 1 -0.020671875 -0.00125 -0.024215625 0.0138696939255
485 1 -0.020671875 -0.00125 -0.023034375 0.0138696939255
486 1 -0.020671875 -0.00125 -0.021853125 0.000126658700522
487 1 -0.020671875 -0.00125 -0.020671875 0.00154813293271
488 1 -0.020671875 -0.00125 -0.019490625 0.0622852805866
489 1 -0.020671875 -0.00125 -0.018309375 0.546989619883
490 1 -0.020671875 -0.00125 -0.017128125 0.390374014268
491 1 -0.020671875 -0.00125 -0.015946875 0.235287296038
492 1 -0.020671875 -0.00125 -0.014765625 0.123928325831
493 1 -0.020671875 -0.00125 -0.013584375 0.109918860021
494 1 -0.020671875 -0.00125 -0.012403125 0.372493358291
495 1 -0.020671875 -0.00125 -0.011221875 0.224469737872
496 1 -0.020671875 -0.00125 -0.010040625 0.14929428164
497 1 -0.020671875 -0.00125 -0.008859375 0.0827704306511
498 1 -0.020671875 -0.00125 -0.007678125 0.252716464147
499 1 -0.020671875 -0.00125 -0.006496875 0.323421419327
500 1 -0.020671875 -0.00125 -0.005315625 0.430635345024
501 1 -0.020671875 -0.00125 -0.004134375 0.303422785529
502 1 -0.020671875 -0.00125 -0.002953125 0.31008152194
503 1 -0.020671875 -0.00125 -0.001771875 0.114532075754
504 1 -0.020671875 -0.00125 -0.000590625 0.255999201672
505 1 -0.020671875 -0.00125 0.000590625 0.0622852495443
506 1 -0.020671875 -0.00125 0.001771875 0.000126658700522
507 1 -0.020671875 -0.00125 0.002953125 6.01557630165e-07
508 1 -0.020671875 -0.00125 0.004134375 0.0443322974297
509 1 -0.020671875 -0.00125 0.005315625 0.0912339065983
510 1 -0.020671875 -0.00125 0.006496875 0.0802910276307
511 1 -0.020671875 -0.00125 0.007678125 0.551464182117
512 1 -0.020671875 -0.00125 0.008859375 0.321196490136
513 1 -0.020671875 -0.00125 0.010040625 0.292342717184
514 1 -0.020671875 -0.00125 0.011221875 0.186171540908
515 1 -0.020671875 -0.00125 0.012403125 0.0138696939255
516 1 -0.020671875 -0.00125 0.013584375 0.0138696939255
517 1 -0.020671875 -0.00125 0.014765625 0.0293069007767
518 1 -0.020671875 -0.00125 0.015946875 0.123928325831
519 1 -0.020671875 -0.00125 0.017128125 0.224469737872
520 1 -0.020671875 -0.00125 0.018309375 0.292342717184
521 1 -0.020671875 -0.00125 0.019490625 0.410501961931
522 1 -0.020671875 -0.00125 0.020671875 0.091233852548
523 1 -0.020671875 -0.00125 0.021853125 0.159358746116
524 1 -0.020671875 -0.00125 0.023034375 0.091233852548
525 1 -0.020671875 -0.00125 0.024215625 0.091233852548
526 1 -0.020671875 -0.00125 0.025396875 0.091233852548
527 1 -0.020671875 -0.00125 0.026578125 0.0138696939255
528 1 -0.020671875 -0.00125 0.027759375 0.0138696939255
529 1 -0.020671875 -0.00125 0.028940625 0.000245540111831
530 1 -0.020671875 -0.00125 0.030121875 0.0
531 1 -0.019490625 -0.00125 -0.031303125 0.00834420319552
532 1 -0.019490625 -0.00125 -0.030121875 0.000287624966496
533 1 -0.019490625 -0.00125 -0.028940625 1.74019667629e-11
534 1 -0.019490625 -0.00125 -0.027759375 1.74019667629e-11
535 1 -0.019490625 -0.00125 -0.026578125 3.13291850736e-08
536 1 -0.019490625 -0.00125 -0.025396875 0.000535662176186
537 1 -0.019490625 -0.00125 -0.024215625 0.00565998798415
538 1 -0.019490625 -0.00125 -0.023034375 0.0293069007767
539 1 -0.019490625 -0.00125 -0.021853125 0.0207856853608
540 1 -0.019490625 -0.00125 -0.020671875 0.0335972786663
541 1 -0.019490625 -0.00125 -0.019490625 0.154307352577
542 1 -0.019490625 -0.00125 -0.018309375 0.540276900439
543 1 -0.019490625 -0.00125 -0.017128125 0.635325431787
544 1 -0.019490625 -0.00125 -0.015946875 0.761455449511
545 1 -0.019490625 -0.00125 -0.014765625 0.222314278805
546 1 -0.019490625 -0.00125 -0.013584375 0.00734858539479
547 1 -0.019490625 -0.00125 -0.012403125 0.0098718633607
548 1 -0.019490625 -0.00125 -0.011221875 0.0955753735432
549 1 -0.019490625 -0.00125 -0.010040625 0.131597938701
550 1 -0.019490625 -0.00125 -0.008859375 0.167516386218
551 1 -0.019490625 -0.00125 -0.007678125 0.0869646320803
552 1 -0.019490625 -0.00125 -0.006496875 0.150293649123
553 1 -0.019490625 -0.00125 -0.005315625 0.221237697261
554 1 -0.019490625 -0.00125 -0.004134375 0.151294828347
555 1 -0.019490625 -0.00125 -0.002953125 0.151294576826
556 1 -0.019490625 -0.00125 -0.001771875 0.11175699854
557 1 -0.019490625 -0.00125 -0.000590625 0.23420258594
558 1 -0.019490625 -0.00125 0.000590625 0.144321532226
559 1 -0.019490625 -0.00125 0.001771875 0.180950835502
560 1 -0.019490625 -0.00125 0.002953125 0.199867928267
561 1 -0.019490625 -0.00125 0.004134375 0.0802910104399
562 1 -0.019490625 -0.00125 0.005315625 0.0122342798436