ITEM: TIMESTEP
0
ITEM: NUMBER OF ATOMS
3080
ITEM: BOX BOUNDS ss ss ss
-3.7007399999999996e-02 3.7007399999999996e-02
-2.0002499999999999e-03 2.5000000000000004e-07
-3.7007399999999996e-02 3.7007399999999996e-02
ITEM: ATOMS id type x y z c_1
0 1 -0.037209375 -0.00125 -0.000590625 0.0
1 1 -0.036028125 -0.00125 -0.007678125 0.0
2 1 -0.036028125 -0.00125 -0.006496875 0.0
3 1 -0.036028125 -0.00125 -0.005315625 0.0
4 1 -0.036028125 -0.00125 -0.004134375 0.0
5 1 -0.036028125 -0.00125 -0.002953125 0.0
6 1 -0.036028125 -0.00125 -0.001771875 0.0
7 1 -0.036028125 -0.00125 -0.000590625 0.0
8 1 -0.036028125 -0.00125 0.000590625 0.0
9 1 -0.036028125 -0.00125 0.001771875 0.0
10 1 -0.036028125 -0.00125 0.002953125 0.0
11 1 -0.036028125 -0.00125 0.004134375 0.0
12 1 -0.036028125 -0.00125 0.005315625 0.0
13 1 -0.036028125 -0.00125 0.006496875 0.0
14 1 -0.036028125 -0.00125 0.007678125 0.0
15 1 -0.034846875 -0.00125 -0.011221875 0.0
16 1 -0.034846875 -0.00125 -0.010040625 0.0
17 1 -0.034846875 -0.00125 -0.008859375 0.0
18 1 -0.034846875 -0.00125 -0.007678125 0.0
19 1 -0.034846875 -0.00125 -0.006496875 0.0
20 1 -0.034846875 -0.00125 -0.005315625 0.0
21 1 -0.034846875 -0.00125 -0.004134375 0.0
22 1 -0.034846875 -0.00125 -0.002953125 0.0
23 1 -0.034846875 -0.00125 -0.001771875 0.0
24 1 -0.034846875 -0.00125 -0.000590625 0.0
25 1 -0.034846875 -0.00125 0.000590625 0.0
26 1 -0.034846875 -0.00125 0.001771875 0.0
27 1 -0.034846875 -0.00125 0.002953125 0.0
28 1 -0.034846875 -0.00125 0.004134375 0.0
29 1 -0.034846875 -0.00125 0.005315625 0.0
30 1 -0.034846875 -0.00125 0.006496875 0.0
31 1 -0.034846875 -0.00125 0.007678125 0.0
32 1 -0.034846875 -0.00125 0.008859375 0.0
33 1 -0.034846875 -0.00125 0.010040625 0.0
34 1 -0.034846875 -0.00125 0.011221875 0.0
35 1 -0.033665625 -0.00125 -0.013584375 0.0
36 1 -0.033665625 -0.00125 -0.012403125 0.0
37 1 -0.033665625 -0.00125 -0.011221875 0.0
38 1 -0.033665625 -0.00125 -0.010040625 0.0
39 1 -0.033665625 -0.00125 -0.008859375 0.0
40 1 -0.033665625 -0.00125 -0.007678125 0.0
41 1 -0.033665625 -0.00125 -0.006496875 0.0
42 1 -0.033665625 -0.00125 -0.005315625 0.0
43 1 -0.033665625 -0.00125 -0.004134375 0.0
44 1 -0.033665625 -0.00125 -0.002953125 0.0
45 1 -0.033665625 -0.00125 -0.001771875 0.0
46 1 -0.033665625 -0.00125 -0.000590625 0.0
47 1 -0.033665625 -0.00125 0.000590625 0.0
48 1 -0.033665625 -0.00125 0.001771875 0.0
49 1 -0.033665625 -0.00125 0.002953125 0.0
50 1 -0.033665625 -0.00125 0.004134375 0.0
51 1 -0.033665625 -0.00125 0.005315625 0.0
52 1 -0.033665625 -0.00125 0.006496875 0.0
53 1 -0.033665625 -0.00125 0.007678125 0.0
54 1 -0.033665625 -0.00125 0.008859375 0.0
55 1 -0.033665625 -0.00125 0.010040625 0.0
56 1 -0.033665625 -0.00125 0.011221875 0.0
57 1 -0.033665625 -0.00125 0.012403125 0.0
58 1 -0.033665625 -0.00125 0.013584375 0.0
59 1 -0.032484375 -0.00125 -0.018309375 0.0
60 1 -0.032484375 -0.00125 -0.017128125 0.0
61 1 -0.032484375 -0.00125 -0.015946875 0.0
62 1 -0.032484375 -0.00125 -0.014765625 0.0
63 1 -0.032484375 -0.00125 -0.013584375 0.0
64 1 -0.032484375 -0.00125 -0.012403125 0.0
65 1 -0.032484375 -0.00125 -0.011221875 0.0
66 1 -0.032484375 -0.00125 -0.010040625 0.0
67 1 -0.032484375 -0.00125 -0.008859375 0.0
68 1 -0.032484375 -0.00125 -0.007678125 0.0
69 1 -0.032484375 -0.00125 -0.006496875 0.0
70 1 -0.032484375 -0.00125 -0.005315625 0.0
71 1 -0.032484375 -0.00125 -0.004134375 0.0
72 1 -0.032484375 -0.00125 -0.002953125 0.0
73 1 -0.032484375 -0.00125 -0.001771875 0.000126657322377
74 1 -0.032484375 -0.00125 -0.000590625 3.13289077414e-08
75 1 -0.032484375 -0.00125 0.000590625 0.0
76 1 -0.032484375 -0.00125 0.001771875 0.0
77 1 -0.032484375 -0.00125 0.002953125 0.0
78 1 -0.032484375 -0.00125 0.004134375 0.0
79 1 -0.032484375 -0.00125 0.005315625 0.0
80 1 -0.032484375 -0.00125 0.006496875 0.0
81 1 -0.032484375 -0.00125 0.007678125 2.79378975481e-22
82 1 -0.032484375 -0.00125 0.008859375 1.74019667629e-11
83 1 -0.032484375 -0.00125 0.010040625 2.79378975481e-22
84 1 -0.032484375 -0.00125 0.011221875 0.0
85 1 -0.032484375 -0.00125 0.012403125 0.0
86 1 -0.032484375 -0.00125 0.013584375 0.0
87 1 -0.032484375 -0.00125 0.014765625 0.0
88 1 -0.032484375 -0.00125 0.015946875 0.0
89 1 -0.032484375 -0.00125 0.017128125 0.0
90 1 -0.032484375 -0.00125 0.018309375 0.0
91 1 -0.031303125 -0.00125 -0.019490625 0.0
92 1 -0.031303125 -0.00125 -0.018309375 0.0
93 1 -0.031303125 -0.00125 -0.017128125 0.0
94 1 -0.031303125 -0.00125 -0.015946875 0.0
95 1 -0.031303125 -0.00125 -0.014765625 0.0
96 1 -0.031303125 -0.00125 -0.013584375 0.0
97 1 -0.031303125 -0.00125 -0.012403125 0.0
98 1 -0.031303125 -0.00125 -0.011221875 0.0
99 1 -0.031303125 -0.00125 -0.010040625 0.0
100 1 -0.031303125 -0.00125 -0.008859375 0.0
101 1 -0.031303125 -0.00125 -0.007678125 0.0
102 1 -0.031303125 -0.00125 -0.006496875 0.0
103 1 -0.031303125 -0.00125 -0.005315625 0.0
104 1 -0.031303125 -0.00125 -0.004134375 0.0
105 1 -0.031303125 -0.00125 -0.002953125 0.00154813293271
106 1 -0.031303125 -0.00125 -0.001771875 0.159358746116
107 1 -0.031303125 -0.00125 -0.000590625 0.0529662350389
108 1 -0.031303125 -0.00125 0.000590625 0.00154813293271
109 1 -0.031303125 -0.00125 0.001771875 0.0
110 1 -0.031303125 -0.00125 0.002953125 0.0
111 1 -0.031303125 -0.00125 0.004134375 0.0
112 1 -0.031303125 -0.00125 0.005315625 1.22156214432e-15
113 1 -0.031303125 -0.00125 0.006496875 2.79378975481e-22
114 1 -0.031303125 -0.00125 0.007678125 1.74019667629e-11
115 1 -0.031303125 -0.00125 0.008859375 0.0
116 1 -0.031303125 -0.00125 0.010040625 0.0
117 1 -0.031303125 -0.00125 0.011221875 0.0
118 1 -0.031303125 -0.00125 0.012403125 0.0
119 1 -0.031303125 -0.00125 0.013584375 0.0
120 1 -0.031303125 -0.00125 0.014765625 0.0
121 1 -0.031303125 -0.00125 0.015946875 0.0
122 1 -0.031303125 -0.00125 0.017128125 0.0
123 1 -0.031303125 -0.00125 0.018309375 0.0
124 1 -0.031303125 -0.00125 0.019490625 0.0
125 1 -0.030121875 -0.00125 -0.020671875 0.0
126 1 -0.030121875 -0.00125 -0.019490625 0.0
127 1 -0.030121875 -0.00125 -0.018309375 0.0
128 1 -0.030121875 -0.00125 -0.017128125 0.0
129 1 -0.030121875 -0.00125 -0.015946875 0.0
130 1 -0.030121875 -0.00125 -0.014765625 0.0
131 1 -0.030121875 -0.00125 -0.013584375 0.0
132 1 -0.030121875 -0.00125 -0.012403125 0.0
133 1 -0.030121875 -0.00125 -0.011221875 0.0
134 1 -0.030121875 -0.00125 -0.010040625 0.0
135 1 -0.030121875 -0.00125 -0.008859375 0.0
136 1 -0.030121875 -0.00125 -0.007678125 0.0
137 1 -0.030121875 -0.00125 -0.006496875 0.0
138 1 -0.030121875 -0.00125 -0.005315625 0.0
139 1 -0.030121875 -0.00125 -0.004134375 0.0
140 1 -0.030121875 -0.00125 -0.002953125 0.000126658700522
141 1 -0.030121875 -0.00125 -0.001771875 0.0138696939255
142 1 -0.030121875 -0.00125 -0.000590625 0.306751493137
143 1 -0.030121875 -0.00125 0.000590625 0.00474645121499
144 1 -0.030121875 -0.00125 0.001771875 0.00154813293271
145 1 -0.030121875 -0.00125 0.002953125 4.52220221462e-06
146 1 -0.030121875 -0.00125 0.004134375 0.0138696939255
147 1 -0.030121875 -0.00125 0.005315625 0.175758979902
148 1 -0.030121875 -0.00125 0.006496875 0.0802910104399
149 1 -0.030121875 -0.00125 0.007678125 0.000126658700522
150 1 -0.030121875 -0.00125 0.008859375 6.01557630165e-07
151 1 -0.030121875 -0.00125 0.010040625 1.74019667629e-11
152 1 -0.030121875 -0.00125 0.011221875 0.0
153 1 -0.030121875 -0.00125 0.012403125 0.0
154 1 -0.030121875 -0.00125 0.013584375 0.0
155 1 -0.030121875 -0.00125 0.014765625 0.0
156 1 -0.030121875 -0.00125 0.015946875 0.0
157 1 -0.030121875 -0.00125 0.017128125 0.0
158 1 -0.030121875 -0.00125 0.018309375 0.0
159 1 -0.030121875 -0.00125 0.019490625 0.0
160 1 -0.030121875 -0.00125 0.020671875 0.000572971535964
161 1 -0.028940625 -0.00125 -0.021853125 0.0
162 1 -0.028940625 -0.00125 -0.020671875 0.0
163 1 -0.028940625 -0.00125 -0.019490625 0.0
164 1 -0.028940625 -0.00125 -0.018309375 0.0
165 1 -0.028940625 -0.00125 -0.017128125 0.0
166 1 -0.028940625 -0.00125 -0.015946875 0.0
167 1 -0.028940625 -0.00125 -0.014765625 0.0
168 1 -0.028940625 -0.00125 -0.013584375 0.0
169 1 -0.028940625 -0.00125 -0.012403125 0.0
170 1 -0.028940625 -0.00125 -0.011221875 0.0
171 1 -0.028940625 -0.00125 -0.010040625 0.0
172 1 -0.028940625 -0.00125 -0.008859375 1.74019667629e-11
173 1 -0.028940625 -0.00125 -0.007678125 1.74019667629e-11
174 1 -0.028940625 -0.00125 -0.006496875 0.0
175 1 -0.028940625 -0.00125 -0.005315625 0.0
176 1 -0.028940625 -0.00125 -0.004134375 0.0
177 1 -0.028940625 -0.00125 -0.002953125 4.52220221462e-06
178 1 -0.028940625 -0.00125 -0.001771875 0.0778403011007
179 1 -0.028940625 -0.00125 -0.000590625 0.315636728068
180 1 -0.028940625 -0.00125 0.000590625 0.31008152194
181 1 -0.028940625 -0.00125 0.001771875 0.00154813293271
182 1 -0.028940625 -0.00125 0.002953125 1.74019667629e-11
183 1 -0.028940625 -0.00125 0.004134375 0.01386971523
184 1 -0.028940625 -0.00125 0.005315625 0.0698876476892
185 1 -0.028940625 -0.00125 0.006496875 0.324533753612
186 1 -0.028940625 -0.00125 0.007678125 0.186171540908
187 1 -0.028940625 -0.00125 0.008859375 0.0293069007767
188 1 -0.028940625 -0.00125 0.010040625 0.00154813293271
189 1 -0.028940625 -0.00125 0.011221875 6.01557630165e-07
190 1 -0.028940625 -0.00125 0.012403125 6.01557630165e-07
191 1 -0.028940625 -0.00125 0.013584375 0.0
192 1 -0.028940625 -0.00125 0.014765625 0.0
193 1 -0.028940625 -0.00125 0.015946875 0.0
194 1 -0.028940625 -0.00125 0.017128125 0.0
195 1 -0.028940625 -0.00125 0.018309375 0.0
196 1 -0.028940625 -0.00125 0.019490625 1.28754471296e-08
197 1 -0.028940625 -0.00125 0.020671875 0.0246256158462
198 1 -0.028940625 -0.00125 0.021853125 0.188410584854
199 1 -0.027759375 -0.00125 -0.024215625 0.0
200 1 -0.027759375 -0.00125 -0.023034375 0.0
201 1 -0.027759375 -0.00125 -0.021853125 0.0
202 1 -0.027759375 -0.00125 -0.020671875 0.0
203 1 -0.027759375 -0.00125 -0.019490625 0.0
204 1 -0.027759375 -0.00125 -0.018309375 0.0
205 1 -0.027759375 -0.00125 -0.017128125 0.0
206 1 -0.027759375 -0.00125 -0.015946875 0.0
207 1 -0.027759375 -0.00125 -0.014765625 0.0
208 1 -0.027759375 -0.00125 -0.013584375 0.0
209 1 -0.027759375 -0.00125 -0.012403125 0.0
210 1 -0.027759375 -0.00125 -0.011221875 0.0
211 1 -0.027759375 -0.00125 -0.010040625 1.74019667629e-11
212 1 -0.027759375 -0.00125 -0.008859375 4.52220221462e-06
213 1 -0.027759375 -0.00125 -0.007678125 4.52220221462e-06
214 1 -0.027759375 -0.00125 -0.006496875 6.01557630165e-07
215 1 -0.027759375 -0.00125 -0.005315625 0.000126658700522
216 1 -0.027759375 -0.00125 -0.004134375 0.000126658700522
217 1 -0.027759375 -0.00125 -0.002953125 0.00474645121499
218 1 -0.027759375 -0.00125 -0.001771875 0.175758893257
219 1 -0.027759375 -0.00125 -0.000590625 0.2223145492
220 1 -0.027759375 -0.00125 0.000590625 0.529089062167
221 1 -0.027759375 -0.00125 0.001771875 0.0243767756543
222 1 -0.027759375 -0.00125 0.002953125 1.74019667629e-11
223 1 -0.027759375 -0.00125 0.004134375 0.0
224 1 -0.027759375 -0.00125 0.005315625 6.01557630165e-07
225 1 -0.027759375 -0.00125 0.006496875 0.191419328529
226 1 -0.027759375 -0.00125 0.007678125 0.408265193546
227 1 -0.027759375 -0.00125 0.008859375 0.401555093596
228 1 -0.027759375 -0.00125 0.010040625 0.186171540908
229 1 -0.027759375 -0.00125 0.011221875 0.00474645121499
230 1 -0.027759375 -0.00125 0.012403125 0.000126658700522
231 1 -0.027759375 -0.00125 0.013584375 1.60801117159e-09
232 1 -0.027759375 -0.00125 0.014765625 0.0
233 1 -0.027759375 -0.00125 0.015946875 0.0
234 1 -0.027759375 -0.00125 0.017128125 0.0
235 1 -0.027759375 -0.00125 0.018309375 0.0
236 1 -0.027759375 -0.00125 0.019490625 0.00154812712664
237 1 -0.027759375 -0.00125 0.020671875 0.448535864695
238 1 -0.027759375 -0.00125 0.021853125 0.559032400077
239 1 -0.027759375 -0.00125 0.023034375 0.462599933819
240 1 -0.027759375 -0.00125 0.024215625 0.372876626419
241 1 -0.026578125 -0.00125 -0.026578125 0.0
242 1 -0.026578125 -0.00125 -0.025396875 0.0
243 1 -0.026578125 -0.00125 -0.024215625 0.0
244 1 -0.026578125 -0.00125 -0.023034375 0.0
245 1 -0.026578125 -0.00125 -0.021853125 0.0
246 1 -0.026578125 -0.00125 -0.020671875 0.0
247 1 -0.026578125 -0.00125 -0.019490625 0.0
248 1 -0.026578125 -0.00125 -0.018309375 0.0
249 1 -0.026578125 -0.00125 -0.017128125 0.0
250 1 -0.026578125 -0.00125 -0.015946875 0.0
251 1 -0.026578125 -0.00125 -0.014765625 1.28754471296e-08
252 1 -0.026578125 -0.00125 -0.013584375 6.56188178133e-05
253 1 -0.026578125 -0.00125 -0.012403125 1.28754471296e-08
254 1 -0.026578125 -0.00125 -0.011221875 1.28754471296e-08
255 1 -0.026578125 -0.00125 -0.010040625 1.28754471296e-08
256 1 -0.026578125 -0.00125 -0.008859375 1.77731074088e-06
257 1 -0.026578125 -0.00125 -0.007678125 0.00118682600863
258 1 -0.026578125 -0.00125 -0.006496875 0.00409062376978
259 1 -0.026578125 -0.00125 -0.005315625 0.0138696939255
260 1 -0.026578125 -0.00125 -0.004134375 0.000535662176186
261 1 -0.026578125 -0.00125 -0.002953125 1.5838087899e-05
262 1 -0.026578125 -0.00125 -0.001771875 0.0167441751181
263 1 -0.026578125 -0.00125 -0.000590625 0.00167037765101
264 1 -0.026578125 -0.00125 0.000590625 0.335668776925
265 1 -0.026578125 -0.00125 0.001771875 0.091233852548
266 1 -0.026578125 -0.00125 0.002953125 0.0
267 1 -0.026578125 -0.00125 0.004134375 7.6989341285e-05
268 1 -0.026578125 -0.00125 0.005315625 0.010721384179
269 1 -0.026578125 -0.00125 0.006496875 0.194052548495
270 1 -0.026578125 -0.00125 0.007678125 0.0443322308432
271 1 -0.026578125 -0.00125 0.008859375 0.172658474079
272 1 -0.026578125 -0.00125 0.010040625 0.494406128964
273 1 -0.026578125 -0.00125 0.011221875 0.474267493691
274 1 -0.026578125 -0.00125 0.012403125 0.159358746116
275 1 -0.026578125 -0.00125 0.013584375 0.00063254062588
276 1 -0.026578125 -0.00125 0.014765625 0.0
277 1 -0.026578125 -0.00125 0.015946875 0.0
278 1 -0.026578125 -0.00125 0.017128125 0.0
279 1 -0.026578125 -0.00125 0.018309375 0.0
280 1 -0.026578125 -0.00125 0.019490625 8.54039490608e-05
281 1 -0.026578125 -0.00125 0.020671875 0.224470008617
282 1 -0.026578125 -0.00125 0.021853125 0.554820557537
283 1 -0.026578125 -0.00125 0.023034375 0.647604679555
284 1 -0.026578125 -0.00125 0.024215625 0.359748413611
285 1 -0.026578125 -0.00125 0.025396875 0.0325329579475
286 1 -0.026578125 -0.00125 0.026578125 0.0225621152214
287 1 -0.025396875 -0.00125 -0.026578125 0.0
288 1 -0.025396875 -0.00125 -0.025396875 0.0
289 1 -0.025396875 -0.00125 -0.024215625 0.0
290 1 -0.025396875 -0.00125 -0.023034375 0.0
291 1 -0.025396875 -0.00125 -0.021853125 0.0
292 1 -0.025396875 -0.00125 -0.020671875 0.0
293 1 -0.025396875 -0.00125 -0.019490625 0.0
294 1 -0.025396875 -0.00125 -0.018309375 0.0
295 1 -0.025396875 -0.00125 -0.017128125 0.0
296 1 -0.025396875 -0.00125 -0.015946875 0.0
297 1 -0.025396875 -0.00125 -0.014765625 0.00154813293271
298 1 -0.025396875 -0.00125 -0.013584375 0.00987185758727
299 1 -0.025396875 -0.00125 -0.012403125 0.000126658700522
300 1 -0.025396875 -0.00125 -0.011221875 0.000126658700522
301 1 -0.025396875 -0.00125 -0.010040625 0.00154813293271
302 1 -0.025396875 -0.00125 -0.008859375 0.000126658700522
303 1 -0.025396875 -0.00125 -0.007678125 0.000126658700522
304 1 -0.025396875 -0.00125 -0.006496875 0.00154813293271
305 1 -0.025396875 -0.00125 -0.005315625 0.0138696939255
306 1 -0.025396875 -0.00125 -0.004134375 0.000126658700522
307 1 -0.025396875 -0.00125 -0.002953125 0.0293069007767
308 1 -0.025396875 -0.00125 -0.001771875 0.0138696939255
309 1 -0.025396875 -0.00125 -0.000590625 0.000535660654302
310 1 -0.025396875 -0.00125 0.000590625 0.252716464147
311 1 -0.025396875 -0.00125 0.001771875 0.14929428164
312 1 -0.025396875 -0.00125 0.002953125 0.010721438861
313 1 -0.025396875 -0.00125 0.004134375 0.07461867463
314 1 -0.025396875 -0.00125 0.005315625 0.252716967449
315 1 -0.025396875 -0.00125 0.006496875 0.0364314683579
316 1 -0.025396875 -0.00125 0.007678125 0.0405920711432
317 1 -0.025396875 -0.00125 0.008859375 0.159358746116
318 1 -0.025396875 -0.00125 0.010040625 0.441823107051
319 1 -0.025396875 -0.00125 0.011221875 0.775530217004
320 1 -0.025396875 -0.00125 0.012403125 0.437347694632
321 1 -0.025396875 -0.00125 0.013584375 0.0495617869461
322 1 -0.025396875 -0.00125 0.014765625 4.42606186288e-05
323 1 -0.025396875 -0.00125 0.015946875 0.0
324 1 -0.025396875 -0.00125 0.017128125 1.74019667629e-11
325 1 -0.025396875 -0.00125 0.018309375 0.0
326 1 -0.025396875 -0.00125 0.019490625 0.00198208844631
327 1 -0.025396875 -0.00125 0.020671875 0.000126657572948
328 1 -0.025396875 -0.00125 0.021853125 0.241806908695
329 1 -0.025396875 -0.00125 0.023034375 0.908766147452
330 1 -0.025396875 -0.00125 0.024215625 0.408265146751
331 1 -0.025396875 -0.00125 0.025396875 0.196692230435
332 1 -0.025396875 -0.00125 0.026578125 0.00664248813971
333 1 -0.024215625 -0.00125 -0.027759375 0.0
334 1 -0.024215625 -0.00125 -0.026578125 0.0
335 1 -0.024215625 -0.00125 -0.025396875 0.0
336 1 -0.024215625 -0.00125 -0.024215625 0.0
337 1 -0.024215625 -0.00125 -0.023034375 0.0
338 1 -0.024215625 -0.00125 -0.021853125 0.0
339 1 -0.024215625 -0.00125 -0.020671875 0.0
340 1 -0.024215625 -0.00125 -0.019490625 0.0
341 1 -0.024215625 -0.00125 -0.018309375 0.0
342 1 -0.024215625 -0.00125 -0.017128125 0.0
343 1 -0.024215625 -0.00125 -0.015946875 1.22156214432e-15
344 1 -0.024215625 -0.00125 -0.014765625 0.0622852495443
345 1 -0.024215625 -0.00125 -0.013584375 0.123928564454
346 1 -0.024215625 -0.00125 -0.012403125 4.52227625942e-06
347 1 -0.024215625 -0.00125 -0.011221875 0.0
348 1 -0.024215625 -0.00125 -0.010040625 6.01557630165e-07
349 1 -0.024215625 -0.00125 -0.008859375 0.00154813293271
350 1 -0.024215625 -0.00125 -0.007678125 6.01557630165e-07
351 1 -0.024215625 -0.00125 -0.006496875 0.000198680669426
352 1 -0.024215625 -0.00125 -0.005315625 0.00474645121499
353 1 -0.024215625 -0.00125 -0.004134375 0.0138696939255
354 1 -0.024215625 -0.00125 -0.002953125 0.00474645121499
355 1 -0.024215625 -0.00125 -0.001771875 0.0293069007767
356 1 -0.024215625 -0.00125 -0.000590625 0.0229929886664
357 1 -0.024215625 -0.00125 0.000590625 0.372493358291
358 1 -0.024215625 -0.00125 0.001771875 0.39037452881
359 1 -0.024215625 -0.00125 0.002953125 0.0827704828178
360 1 -0.024215625 -0.00125 0.004134375 0.0912339065983
361 1 -0.024215625 -0.00125 0.005315625 0.114532075754
362 1 -0.024215625 -0.00125 0.006496875 0.121086555026
363 1 -0.024215625 -0.00125 0.007678125 0.186171540908
364 1 -0.024215625 -0.00125 0.008859375 0.186171540908
365 1 -0.024215625 -0.00125 0.010040625 0.263674497482
366 1 -0.024215625 -0.00125 0.011221875 0.350163267536
367 1 -0.024215625 -0.00125 0.012403125 0.631974825117
368 1 -0.024215625 -0.00125 0.013584375 0.497762133252
369 1 -0.024215625 -0.00125 0.014765625 0.0622852495443
370 1 -0.024215625 -0.00125 0.015946875 0.000891017573599
371 1 -0.024215625 -0.00125 0.017128125 0.000891023127979
372 1 -0.024215625 -0.00125 0.018309375 0.000466557301994
373 1 -0.024215625 -0.00125 0.019490625 0.0762228548539
374 1 -0.024215625 -0.00125 0.020671875 0.114532075754
375 1 -0.024215625 -0.00125 0.021853125 0.40155560828
376 1 -0.024215625 -0.00125 0.023034375 0.830430598761
377 1 -0.024215625 -0.00125 0.024215625 0.14929428164
378 1 -0.024215625 -0.00125 0.025396875 0.186171540908
379 1 -0.024215625 -0.00125 0.026578125 0.010721438861
380 1 -0.024215625 -0.00125 0.027759375 0.0
381 1 -0.023034375 -0.00125 -0.027759375 0.0
382 1 -0.023034375 -0.00125 -0.026578125 0.0
383 1 -0.023034375 -0.00125 -0.025396875 0.0
384 1 -0.023034375 -0.00125 -0.024215625 0.0
385 1 -0.023034375 -0.00125 -0.023034375 0.0
386 1 -0.023034375 -0.00125 -0.021853125 0.0
387 1 -0.023034375 -0.00125 -0.020671875 0.0
388 1 -0.023034375 -0.00125 -0.019490625 0.0
389 1 -0.023034375 -0.00125 -0.018309375 0.0
390 1 -0.023034375 -0.00125 -0.017128125 0.0
391 1 -0.023034375 -0.00125 -0.015946875 0.0
392 1 -0.023034375 -0.00125 -0.014765625 0.263674497482
393 1 -0.023034375 -0.00125 -0.013584375 0.361324775515
394 1 -0.023034375 -0.00125 -0.012403125 0.281290216208
395 1 -0.023034375 -0.00125 -0.011221875 0.21372123369
396 1 -0.023034375 -0.00125 -0.010040625 0.224469737872
397 1 -0.023034375 -0.00125 -0.008859375 0.259286106027
398 1 -0.023034375 -0.00125 -0.007678125 0.133535038668
399 1 -0.023034375 -0.00125 -0.006496875 0.00474645121499
400 1 -0.023034375 -0.00125 -0.005315625 0.0138696939255
401 1 -0.023034375 -0.00125 -0.004134375 0.0138696939255
402 1 -0.023034375 -0.00125 -0.002953125 0.0138696939255
403 1 -0.023034375 -0.00125 -0.001771875 0.0443322841124
404 1 -0.023034375 -0.00125 -0.000590625 0.0802910104399
405 1 -0.023034375 -0.00125 0.000590625 0.332327069371
406 1 -0.023034375 -0.00125 0.001771875 0.779838391573
407 1 -0.023034375 -0.00125 0.002953125 0.0698876476892
408 1 -0.023034375 -0.00125 0.004134375 0.00154813293271
409 1 -0.023034375 -0.00125 0.005315625 0.149294323427
410 1 -0.023034375 -0.00125 0.006496875 0.159358746116
411 1 -0.023034375 -0.00125 0.007678125 0.186171540908
412 1 -0.023034375 -0.00125 0.008859375 0.196692230435
413 1 -0.023034375 -0.00125 0.010040625 0.263674497482
414 1 -0.023034375 -0.00125 0.011221875 0.252716464147
415 1 -0.023034375 -0.00125 0.012403125 0.281290724237
416 1 -0.023034375 -0.00125 0.013584375 0.60962547119
417 1 -0.023034375 -0.00125 0.014765625 0.685474509568
418 1 -0.023034375 -0.00125 0.015946875 0.488812258104
419 1 -0.023034375 -0.00125 0.017128125 0.310081568404
420 1 -0.023034375 -0.00125 0.018309375 0.448535349767
421 1 -0.023034375 -0.00125 0.019490625 0.428398571473
422 1 -0.023034375 -0.00125 0.020671875 0.558176892949
423 1 -0.023034375 -0.00125 0.021853125 0.649836732464
424 1 -0.023034375 -0.00125 0.023034375 0.627507109162
425 1 -0.023034375 -0.00125 0.024215625 0.321195978177
426 1 -0.023034375 -0.00125 0.025396875 0.390374014268
427 1 -0.023034375 -0.00125 0.026578125 0.0778403180889
428 1 -0.023034375 -0.00125 0.027759375 0.00106278235535
429 1 -0.021853125 -0.00125 -0.028940625 0.0
430 1 -0.021853125 -0.00125 -0.027759375 0.0
431 1 -0.021853125 -0.00125 -0.026578125 0.0
432 1 -0.021853125 -0.00125 -0.025396875 0.0
433 1 -0.021853125 -0.00125 -0.024215625 0.0
434 1 -0.021853125 -0.00125 -0.023034375 0.0
435 1 -0.021853125 -0.00125 -0.021853125 0.0
436 1 -0.021853125 -0.00125 -0.020671875 0.0
437 1 -0.021853125 -0.00125 -0.019490625 0.0
438 1 -0.021853125 -0.00125 -0.018309375 0.0
439 1 -0.021853125 -0.00125 -0.017128125 0.0
440 1 -0.021853125 -0.00125 -0.015946875 4.52220221462e-06
441 1 -0.021853125 -0.00125 -0.014765625 0.091233852548
442 1 -0.021853125 -0.00125 -0.013584375 0.10266431786
443 1 -0.021853125 -0.00125 -0.012403125 0.14929428164
444 1 -0.021853125 -0.00125 -0.011221875 0.186171540908
445 1 -0.021853125 -0.00125 -0.010040625 0.186171540908
446 1 -0.021853125 -0.00125 -0.008859375 0.252716464147
447 1 -0.021853125 -0.00125 -0.007678125 0.314525490432
448 1 -0.021853125 -0.00125 -0.006496875 0.17783256256
449 1 -0.021853125 -0.00125 -0.005315625 0.0622852495443
450 1 -0.021853125 -0.00125 -0.004134375 0.0138696939255
451 1 -0.021853125 -0.00125 -0.002953125 0.0138696939255
452 1 -0.021853125 -0.00125 -0.001771875 0.0138696939255
453 1 -0.021853125 -0.00125 -0.000590625 0.146305836593
454 1 -0.021853125 -0.00125 0.000590625 0.368025128148
455 1 -0.021853125 -0.00125 0.001771875 0.870331469564
456 1 -0.021853125 -0.00125 0.002953125 0.14929428164
457 1 -0.021853125 -0.00125 0.004134375 0.000891023127979
458 1 -0.021853125 -0.00125 0.005315625 0.186171540908
459 1 -0.021853125 -0.00125 0.006496875 0.119202705758
460 1 -0.021853125 -0.00125 0.007678125 0.00249557865471
461 1 -0.021853125 -0.00125 0.008859375 0.0175125891118
462 1 -0.021853125 -0.00125 0.010040625 0.0999860491522
463 1 -0.021853125 -0.00125 0.011221875 0.0999860491522
464 1 -0.021853125 -0.00125 0.012403125 0.0199375341518
465 1 -0.021853125 -0.00125 0.013584375 0.107180080394
466 1 -0.021853125 -0.00125 0.014765625 0.186171540908
467 1 -0.021853125 -0.00125 0.015946875 0.186171540908
468 1 -0.021853125 -0.00125 0.017128125 0.186171540908
469 1 -0.021853125 -0.00125 0.018309375 0.224469737872
470 1 -0.021853125 -0.00125 0.019490625 0.366908099064
471 1 -0.021853125 -0.00125 0.020671875 0.551464650233
472 1 -0.021853125 -0.00125 0.021853125 0.758193091305
473 1 -0.021853125 -0.00125 0.023034375 0.511187741896
474 1 -0.021853125 -0.00125 0.024215625 0.321195978177
475 1 -0.021853125 -0.00125 0.025396875 0.551464650233
476 1 -0.021853125 -0.00125 0.026578125 0.224469467126
477 1 -0.021853125 -0.00125 0.027759375 0.219782120575
478 1 -0.021853125 -0.00125 0.028940625 0.783354516729
479 1 -0.020671875 -0.00125 -0.030121875 0.0
480 1 -0.020671875 -0.00125 -0.028940625 0.0
481 1 -0.020671875 -0.00125 -0.027759375 0.0
482 1 -0.020671875 -0.00125 -0.026578125 0.0
483 1 -0.020671875 -0.00125 -0.025396875 0.0
484 1 -0.020671875 -0.00125 -0.024215625 0.0
485 1 -0.020671875 -0.00125 -0.023034375 0.0
486 1 -0.020671875 -0.00125 -0.021853125 0.0
487 1 -0.020671875 -0.00125 -0.020671875 0.0
488 1 -0.020671875 -0.00125 -0.019490625 0.0
489 1 -0.020671875 -0.00125 -0.018309375 0.0
490 1 -0.020671875 -0.00125 -0.017128125 0.0
491 1 -0.020671875 -0.00125 -0.015946875 1.74019667629e-11
492 1 -0.020671875 -0.00125 -0.014765625 0.010721438861
493 1 -0.020671875 -0.00125 -0.013584375 0.00118682737832
494 1 -0.020671875 -0.00125 -0.012403125 0.0
495 1 -0.020671875 -0.00125 -0.011221875 0.0
496 1 -0.020671875 -0.00125 -0.010040625 0.0
497 1 -0.020671875 -0.00125 -0.008859375 1.74019667629e-11
498 1 -0.020671875 -0.00125 -0.007678125 0.0293069007767
499 1 -0.020671875 -0.00125 -0.006496875 0.269169389632
500 1 -0.020671875 -0.00125 -0.005315625 0.159358746116
501 1 -0.020671875 -0.00125 -0.004134375 0.123928325831
502 1 -0.020671875 -0.00125 -0.002953125 0.0138696939255
503 1 -0.020671875 -0.00125 -0.001771875 0.0138696939255
504 1 -0.020671875 -0.00125 -0.000590625 0.0267810506
505 1 -0.020671875 -0.00125 0.000590625 0.274673763196
506 1 -0.020671875 -0.00125 0.001771875 0.736324951228
507 1 -0.020671875 -0.00125 0.002953125 0.412738808647
508 1 -0.020671875 -0.00125 0.004134375 0.123928325831
509 1 -0.020671875 -0.00125 0.005315625 0.303423296049
510 1 -0.020671875 -0.00125 0.006496875 0.0229930171508
511 1 -0.020671875 -0.00125 0.007678125 1.74019667629e-11
512 1 -0.020671875 -0.00125 0.008859375 4.52220221462e-06
513 1 -0.020671875 -0.00125 0.010040625 0.000299132858986
514 1 -0.020671875 -0.00125 0.011221875 6.01557630165e-07
515 1 -0.020671875 -0.00125 0.012403125 0.000126657572948
516 1 -0.020671875 -0.00125 0.013584375 0.00154813127383
517 1 -0.020671875 -0.00125 0.014765625 4.52220221462e-06
518 1 -0.020671875 -0.00125 0.015946875 0.0
519 1 -0.020671875 -0.00125 0.017128125 4.52220221462e-06
520 1 -0.020671875 -0.00125 0.018309375 6.01557630165e-07
521 1 -0.020671875 -0.00125 0.019490625 0.0424422298875
522 1 -0.020671875 -0.00125 0.020671875 0.372493358291
523 1 -0.020671875 -0.00125 0.021853125 0.885467904821
524 1 -0.020671875 -0.00125 0.023034375 0.569364093285
525 1 -0.020671875 -0.00125 0.024215625 0.580549910179
526 1 -0.020671875 -0.00125 0.025396875 0.511187741896
527 1 -0.020671875 -0.00125 0.026578125 0.326759356069
528 1 -0.020671875 -0.00125 0.027759375 0.602917575581
529 1 -0.020671875 -0.00125 0.028940625 0.292538509234
530 1 -0.020671875 -0.00125 0.030121875 0.251226176702
531 1 -0.019490625 -0.00125 -0.031303125 0.0
532 1 -0.019490625 -0.00125 -0.030121875 0.0
533 1 -0.019490625 -0.00125 -0.028940625 0.0
534 1 -0.019490625 -0.00125 -0.027759375 0.0
535 1 -0.019490625 -0.00125 -0.026578125 0.0
536 1 -0.019490625 -0.00125 -0.025396875 0.0
537 1 -0.019490625 -0.00125 -0.024215625 0.0
538 1 -0.019490625 -0.00125 -0.023034375 0.0
539 1 -0.019490625 -0.00125 -0.021853125 0.0
540 1 -0.019490625 -0.00125 -0.020671875 0.0
541 1 -0.019490625 -0.00125 -0.019490625 0.0
542 1 -0.019490625 -0.00125 -0.018309375 0.0
543 1 -0.019490625 -0.00125 -0.017128125 0.0
544 1 -0.019490625 -0.00125 -0.015946875 2.79378975481e-22
545 1 -0.019490625 -0.00125 -0.014765625 0.000891017573599
546 1 -0.019490625 -0.00125 -0.013584375 0.00595498275928
547 1 -0.019490625 -0.00125 -0.012403125 1.74019667629e-11
548 1 -0.019490625 -0.00125 -0.011221875 0.0
549 1 -0.019490625 -0.00125 -0.010040625 0.0
550 1 -0.019490625 -0.00125 -0.008859375 0.0
551 1 -0.019490625 -0.00125 -0.007678125 2.79378975481e-22
552 1 -0.019490625 -0.00125 -0.006496875 0.0236793956635
553 1 -0.019490625 -0.00125 -0.005315625 0.172658474079
554 1 -0.019490625 -0.00125 -0.004134375 0.233118486248
555 1 -0.019490625 -0.00125 -0.002953125 0.186171540908
556 1 -0.019490625 -0.00125 -0.001771875 0.076223040211
557 1 -0.019490625 -0.00125 -0.000590625 0.0207856853608
558 1 -0.019490625 -0.00125 0.000590625 0.0267810506
559 1 -0.019490625 -0.00125 0.001771875 0.470910937833
560 1 -0.019490625 -0.00125 0.002953125 0.766881513752
561 1 -0.019490625 -0.00125 0.004134375 0.563770861875
562 1 -0.019490625 -0.00125 0.005315625 0.549226860608
563 1 -0.019490625 -0.00125 0.006496875 0.1659800441
564 1 -0.019490625 -0.00125 0.007678125 5.5634138017e-05
565 1 -0.019490625 -0.00125 0.008859375 0.000299131636816
566 1 -0.019490625 -0.00125 0.010040625 0.00424847934137
567 1 -0.019490625 -0.00125 0.011221875 0.00781586920786
568 1 -0.019490625 -0.00125 0.012403125 0.0229929791716
569 1 -0.019490625 -0.00125 0.013584375 0.00118682806317
570 1 -0.019490625 -0.00125 0.014765625 7.02299466978e-08
571 1 -0.019490625 -0.00125 0.015946875 7.02309649834e-08
572 1 -0.019490625 -0.00125 0.017128125 0.00019868031303
573 1 -0.019490625 -0.00125 0.018309375 0.0207857392191
574 1 -0.019490625 -0.00125 0.019490625 0.0856984621257
575 1 -0.019490625 -0.00125 0.020671875 0.421686913933
576 1 -0.019490625 -0.00125 0.021853125 0.904424663081
577 1 -0.019490625 -0.00125 0.023034375 0.68991847806
578 1 -0.019490625 -0.00125 0.024215625 0.470911499592
579 1 -0.019490625 -0.00125 0.025396875 0.392610422586
580 1 -0.019490625 -0.00125 0.026578125 0.341241913392
581 1 -0.019490625 -0.00125 0.027759375 0.660987619307
582 1 -0.019490625 -0.00125 0.028940625 0.39037452881
583 1 -0.019490625 -0.00125 0.030121875 0.345538074472