ITEM: TIMESTEP
0
ITEM: NUMBER OF ATOMS
3080
ITEM: BOX BOUNDS ss ss ss
-3.7007399999999996e-02 3.7007399999999996e-02
-2.0002499999999999e-03 2.5000000000000004e-07
-3.7007399999999996e-02 3.7007399999999996e-02
ITEM: ATOMS id type x y z c_1
0 1 -0.037209375 -0.00125 -0.000590625 1.0
1 1 -0.036028125 -0.00125 -0.007678125 0.0
2 1 -0.036028125 -0.00125 -0.006496875 0.0
3 1 -0.036028125 -0.00125 -0.005315625 0.0
4 1 -0.036028125 -0.00125 -0.004134375 0.0
5 1 -0.036028125 -0.00125 -0.002953125 0.0358553761459
6 1 -0.036028125 -0.00125 -0.001771875 0.226627684957
7 1 -0.036028125 -0.00125 -0.000590625 0.0339792945837
8 1 -0.036028125 -0.00125 0.000590625 2.18562566225e-09
9 1 -0.036028125 -0.00125 0.001771875 4.42606186288e-05
10 1 -0.036028125 -0.00125 0.002953125 4.42606186288e-05
11 1 -0.036028125 -0.00125 0.004134375 3.70458005324e-08
12 1 -0.036028125 -0.00125 0.005315625 0.0
13 1 -0.036028125 -0.00125 0.006496875 0.0
14 1 -0.036028125 -0.00125 0.007678125 0.0
15 1 -0.034846875 -0.00125 -0.011221875 0.00920066229086
16 1 -0.034846875 -0.00125 -0.010040625 4.42606186288e-05
17 1 -0.034846875 -0.00125 -0.008859375 1.63558782507e-05
18 1 -0.034846875 -0.00125 -0.007678125 0.0
19 1 -0.034846875 -0.00125 -0.006496875 0.0
20 1 -0.034846875 -0.00125 -0.005315625 0.0
21 1 -0.034846875 -0.00125 -0.004134375 1.22156214432e-15
22 1 -0.034846875 -0.00125 -0.002953125 0.0550579642476
23 1 -0.034846875 -0.00125 -0.001771875 0.263674497482
24 1 -0.034846875 -0.00125 -0.000590625 0.169569358233
25 1 -0.034846875 -0.00125 0.000590625 1.77729209249e-06
26 1 -0.034846875 -0.00125 0.001771875 0.0
27 1 -0.034846875 -0.00125 0.002953125 0.0
28 1 -0.034846875 -0.00125 0.004134375 0.0
29 1 -0.034846875 -0.00125 0.005315625 0.0
30 1 -0.034846875 -0.00125 0.006496875 0.0
31 1 -0.034846875 -0.00125 0.007678125 0.0
32 1 -0.034846875 -0.00125 0.008859375 0.0
33 1 -0.034846875 -0.00125 0.010040625 0.0
34 1 -0.034846875 -0.00125 0.011221875 0.0
35 1 -0.033665625 -0.00125 -0.013584375 0.0
36 1 -0.033665625 -0.00125 -0.012403125 0.0180058544457
37 1 -0.033665625 -0.00125 -0.011221875 0.0328183764962
38 1 -0.033665625 -0.00125 -0.010040625 0.0243767952624
39 1 -0.033665625 -0.00125 -0.008859375 0.000126657572948
40 1 -0.033665625 -0.00125 -0.007678125 0.0
41 1 -0.033665625 -0.00125 -0.006496875 0.0
42 1 -0.033665625 -0.00125 -0.005315625 0.0
43 1 -0.033665625 -0.00125 -0.004134375 0.0
44 1 -0.033665625 -0.00125 -0.002953125 0.0293069007767
45 1 -0.033665625 -0.00125 -0.001771875 0.21372123369
46 1 -0.033665625 -0.00125 -0.000590625 0.0107214510125
47 1 -0.033665625 -0.00125 0.000590625 0.0
48 1 -0.033665625 -0.00125 0.001771875 0.0
49 1 -0.033665625 -0.00125 0.002953125 0.0
50 1 -0.033665625 -0.00125 0.004134375 0.0
51 1 -0.033665625 -0.00125 0.005315625 0.0
52 1 -0.033665625 -0.00125 0.006496875 0.0
53 1 -0.033665625 -0.00125 0.007678125 0.0
54 1 -0.033665625 -0.00125 0.008859375 0.0
55 1 -0.033665625 -0.00125 0.010040625 0.0
56 1 -0.033665625 -0.00125 0.011221875 0.0
57 1 -0.033665625 -0.00125 0.012403125 0.0
58 1 -0.033665625 -0.00125 0.013584375 0.0
59 1 -0.032484375 -0.00125 -0.018309375 0.0378159779673
60 1 -0.032484375 -0.00125 -0.017128125 0.0
61 1 -0.032484375 -0.00125 -0.015946875 0.0
62 1 -0.032484375 -0.00125 -0.014765625 0.0
63 1 -0.032484375 -0.00125 -0.013584375 0.0
64 1 -0.032484375 -0.00125 -0.012403125 2.79378975481e-22
65 1 -0.032484375 -0.00125 -0.011221875 1.40785443464e-30
66 1 -0.032484375 -0.00125 -0.010040625 2.79378975481e-22
67 1 -0.032484375 -0.00125 -0.008859375 0.0
68 1 -0.032484375 -0.00125 -0.007678125 0.0
69 1 -0.032484375 -0.00125 -0.006496875 0.0
70 1 -0.032484375 -0.00125 -0.005315625 0.0
71 1 -0.032484375 -0.00125 -0.004134375 0.0
72 1 -0.032484375 -0.00125 -0.002953125 1.77729209249e-06
73 1 -0.032484375 -0.00125 -0.001771875 0.0056600163072
74 1 -0.032484375 -0.00125 -0.000590625 0.000535659512892
75 1 -0.032484375 -0.00125 0.000590625 7.49709589486e-44
76 1 -0.032484375 -0.00125 0.001771875 0.0
77 1 -0.032484375 -0.00125 0.002953125 0.0
78 1 -0.032484375 -0.00125 0.004134375 0.0
79 1 -0.032484375 -0.00125 0.005315625 0.0
80 1 -0.032484375 -0.00125 0.006496875 0.0
81 1 -0.032484375 -0.00125 0.007678125 0.0
82 1 -0.032484375 -0.00125 0.008859375 0.0
83 1 -0.032484375 -0.00125 0.010040625 0.0
84 1 -0.032484375 -0.00125 0.011221875 0.0
85 1 -0.032484375 -0.00125 0.012403125 0.0
86 1 -0.032484375 -0.00125 0.013584375 0.0
87 1 -0.032484375 -0.00125 0.014765625 0.0
88 1 -0.032484375 -0.00125 0.015946875 0.0
89 1 -0.032484375 -0.00125 0.017128125 0.0075399670332
90 1 -0.032484375 -0.00125 0.018309375 0.00920066229086
91 1 -0.031303125 -0.00125 -0.019490625 0.0528085560491
92 1 -0.031303125 -0.00125 -0.018309375 0.178504266497
93 1 -0.031303125 -0.00125 -0.017128125 1.74019667629e-11
94 1 -0.031303125 -0.00125 -0.015946875 0.0
95 1 -0.031303125 -0.00125 -0.014765625 0.0
96 1 -0.031303125 -0.00125 -0.013584375 0.0
97 1 -0.031303125 -0.00125 -0.012403125 0.0
98 1 -0.031303125 -0.00125 -0.011221875 0.0
99 1 -0.031303125 -0.00125 -0.010040625 0.0
100 1 -0.031303125 -0.00125 -0.008859375 0.0
101 1 -0.031303125 -0.00125 -0.007678125 0.0
102 1 -0.031303125 -0.00125 -0.006496875 0.0
103 1 -0.031303125 -0.00125 -0.005315625 0.0
104 1 -0.031303125 -0.00125 -0.004134375 0.0
105 1 -0.031303125 -0.00125 -0.002953125 0.0
106 1 -0.031303125 -0.00125 -0.001771875 0.0
107 1 -0.031303125 -0.00125 -0.000590625 0.0
108 1 -0.031303125 -0.00125 0.000590625 0.0
109 1 -0.031303125 -0.00125 0.001771875 0.0
110 1 -0.031303125 -0.00125 0.002953125 0.0
111 1 -0.031303125 -0.00125 0.004134375 0.0
112 1 -0.031303125 -0.00125 0.005315625 0.0
113 1 -0.031303125 -0.00125 0.006496875 0.0
114 1 -0.031303125 -0.00125 0.007678125 0.0
115 1 -0.031303125 -0.00125 0.008859375 0.0
116 1 -0.031303125 -0.00125 0.010040625 0.0
117 1 -0.031303125 -0.00125 0.011221875 0.0
118 1 -0.031303125 -0.00125 0.012403125 0.0
119 1 -0.031303125 -0.00125 0.013584375 0.0
120 1 -0.031303125 -0.00125 0.014765625 0.0
121 1 -0.031303125 -0.00125 0.015946875 1.74019667629e-11
122 1 -0.031303125 -0.00125 0.017128125 0.123928325831
123 1 -0.031303125 -0.00125 0.018309375 0.112788508618
124 1 -0.031303125 -0.00125 0.019490625 8.50218305249e-07
125 1 -0.030121875 -0.00125 -0.020671875 0.0
126 1 -0.030121875 -0.00125 -0.019490625 0.000492128189834
127 1 -0.030121875 -0.00125 -0.018309375 0.0107214510125
128 1 -0.030121875 -0.00125 -0.017128125 0.0
129 1 -0.030121875 -0.00125 -0.015946875 0.0
130 1 -0.030121875 -0.00125 -0.014765625 0.0
131 1 -0.030121875 -0.00125 -0.013584375 0.0
132 1 -0.030121875 -0.00125 -0.012403125 0.0
133 1 -0.030121875 -0.00125 -0.011221875 0.0
134 1 -0.030121875 -0.00125 -0.010040625 0.0
135 1 -0.030121875 -0.00125 -0.008859375 0.0
136 1 -0.030121875 -0.00125 -0.007678125 0.0
137 1 -0.030121875 -0.00125 -0.006496875 0.0
138 1 -0.030121875 -0.00125 -0.005315625 0.0
139 1 -0.030121875 -0.00125 -0.004134375 0.0
140 1 -0.030121875 -0.00125 -0.002953125 0.0
141 1 -0.030121875 -0.00125 -0.001771875 0.0
142 1 -0.030121875 -0.00125 -0.000590625 0.0
143 1 -0.030121875 -0.00125 0.000590625 0.0
144 1 -0.030121875 -0.00125 0.001771875 0.0
145 1 -0.030121875 -0.00125 0.002953125 0.0
146 1 -0.030121875 -0.00125 0.004134375 0.0
147 1 -0.030121875 -0.00125 0.005315625 0.0
148 1 -0.030121875 -0.00125 0.006496875 0.0
149 1 -0.030121875 -0.00125 0.007678125 0.0
150 1 -0.030121875 -0.00125 0.008859375 0.0
151 1 -0.030121875 -0.00125 0.010040625 0.0
152 1 -0.030121875 -0.00125 0.011221875 0.0
153 1 -0.030121875 -0.00125 0.012403125 0.0
154 1 -0.030121875 -0.00125 0.013584375 0.0
155 1 -0.030121875 -0.00125 0.014765625 0.0
156 1 -0.030121875 -0.00125 0.015946875 0.0
157 1 -0.030121875 -0.00125 0.017128125 0.0509111013046
158 1 -0.030121875 -0.00125 0.018309375 0.00668182974929
159 1 -0.030121875 -0.00125 0.019490625 0.0
160 1 -0.030121875 -0.00125 0.020671875 0.0
161 1 -0.028940625 -0.00125 -0.021853125 0.0
162 1 -0.028940625 -0.00125 -0.020671875 0.0
163 1 -0.028940625 -0.00125 -0.019490625 0.00037578707255
164 1 -0.028940625 -0.00125 -0.018309375 0.0138696939255
165 1 -0.028940625 -0.00125 -0.017128125 0.0
166 1 -0.028940625 -0.00125 -0.015946875 0.0
167 1 -0.028940625 -0.00125 -0.014765625 0.0
168 1 -0.028940625 -0.00125 -0.013584375 0.0
169 1 -0.028940625 -0.00125 -0.012403125 0.0
170 1 -0.028940625 -0.00125 -0.011221875 0.0
171 1 -0.028940625 -0.00125 -0.010040625 0.0
172 1 -0.028940625 -0.00125 -0.008859375 0.0
173 1 -0.028940625 -0.00125 -0.007678125 0.0
174 1 -0.028940625 -0.00125 -0.006496875 0.0
175 1 -0.028940625 -0.00125 -0.005315625 0.0
176 1 -0.028940625 -0.00125 -0.004134375 0.0
177 1 -0.028940625 -0.00125 -0.002953125 0.0
178 1 -0.028940625 -0.00125 -0.001771875 0.0
179 1 -0.028940625 -0.00125 -0.000590625 0.0
180 1 -0.028940625 -0.00125 0.000590625 0.0
181 1 -0.028940625 -0.00125 0.001771875 0.0
182 1 -0.028940625 -0.00125 0.002953125 0.0
183 1 -0.028940625 -0.00125 0.004134375 0.0
184 1 -0.028940625 -0.00125 0.005315625 0.0
185 1 -0.028940625 -0.00125 0.006496875 0.0
186 1 -0.028940625 -0.00125 0.007678125 0.0
187 1 -0.028940625 -0.00125 0.008859375 0.0
188 1 -0.028940625 -0.00125 0.010040625 0.0
189 1 -0.028940625 -0.00125 0.011221875 0.0
190 1 -0.028940625 -0.00125 0.012403125 0.0
191 1 -0.028940625 -0.00125 0.013584375 0.0
192 1 -0.028940625 -0.00125 0.014765625 0.0
193 1 -0.028940625 -0.00125 0.015946875 0.0
194 1 -0.028940625 -0.00125 0.017128125 0.00474645121499
195 1 -0.028940625 -0.00125 0.018309375 0.0243767952624
196 1 -0.028940625 -0.00125 0.019490625 0.0
197 1 -0.028940625 -0.00125 0.020671875 0.0
198 1 -0.028940625 -0.00125 0.021853125 0.0
199 1 -0.027759375 -0.00125 -0.024215625 0.0
200 1 -0.027759375 -0.00125 -0.023034375 0.0
201 1 -0.027759375 -0.00125 -0.021853125 0.0
202 1 -0.027759375 -0.00125 -0.020671875 0.0
203 1 -0.027759375 -0.00125 -0.019490625 0.0107214084821
204 1 -0.027759375 -0.00125 -0.018309375 0.091233852548
205 1 -0.027759375 -0.00125 -0.017128125 0.0
206 1 -0.027759375 -0.00125 -0.015946875 0.0
207 1 -0.027759375 -0.00125 -0.014765625 0.0
208 1 -0.027759375 -0.00125 -0.013584375 0.0
209 1 -0.027759375 -0.00125 -0.012403125 0.0
210 1 -0.027759375 -0.00125 -0.011221875 0.0
211 1 -0.027759375 -0.00125 -0.010040625 0.0
212 1 -0.027759375 -0.00125 -0.008859375 0.0
213 1 -0.027759375 -0.00125 -0.007678125 0.0
214 1 -0.027759375 -0.00125 -0.006496875 0.0
215 1 -0.027759375 -0.00125 -0.005315625 0.0
216 1 -0.027759375 -0.00125 -0.004134375 0.0
217 1 -0.027759375 -0.00125 -0.002953125 0.0
218 1 -0.027759375 -0.00125 -0.001771875 0.0
219 1 -0.027759375 -0.00125 -0.000590625 0.0
220 1 -0.027759375 -0.00125 0.000590625 0.0
221 1 -0.027759375 -0.00125 0.001771875 0.0
222 1 -0.027759375 -0.00125 0.002953125 0.0
223 1 -0.027759375 -0.00125 0.004134375 0.0
224 1 -0.027759375 -0.00125 0.005315625 0.0
225 1 -0.027759375 -0.00125 0.006496875 0.0
226 1 -0.027759375 -0.00125 0.007678125 0.0
227 1 -0.027759375 -0.00125 0.008859375 0.0
228 1 -0.027759375 -0.00125 0.010040625 0.0
229 1 -0.027759375 -0.00125 0.011221875 0.0
230 1 -0.027759375 -0.00125 0.012403125 0.0
231 1 -0.027759375 -0.00125 0.013584375 0.0
232 1 -0.027759375 -0.00125 0.014765625 0.0
233 1 -0.027759375 -0.00125 0.015946875 0.0
234 1 -0.027759375 -0.00125 0.017128125 0.224469737872
235 1 -0.027759375 -0.00125 0.018309375 0.321195978177
236 1 -0.027759375 -0.00125 0.019490625 7.69885813891e-05
237 1 -0.027759375 -0.00125 0.020671875 0.0
238 1 -0.027759375 -0.00125 0.021853125 0.0
239 1 -0.027759375 -0.00125 0.023034375 1.63558782507e-05
240 1 -0.027759375 -0.00125 0.024215625 0.0
241 1 -0.026578125 -0.00125 -0.026578125 0.0
242 1 -0.026578125 -0.00125 -0.025396875 0.0
243 1 -0.026578125 -0.00125 -0.024215625 0.0
244 1 -0.026578125 -0.00125 -0.023034375 0.0
245 1 -0.026578125 -0.00125 -0.021853125 0.0
246 1 -0.026578125 -0.00125 -0.020671875 0.0
247 1 -0.026578125 -0.00125 -0.019490625 0.0387816595147
248 1 -0.026578125 -0.00125 -0.018309375 0.10266431786
249 1 -0.026578125 -0.00125 -0.017128125 3.14925560351e-13
250 1 -0.026578125 -0.00125 -0.015946875 0.0
251 1 -0.026578125 -0.00125 -0.014765625 0.0
252 1 -0.026578125 -0.00125 -0.013584375 0.0
253 1 -0.026578125 -0.00125 -0.012403125 0.0
254 1 -0.026578125 -0.00125 -0.011221875 0.0
255 1 -0.026578125 -0.00125 -0.010040625 0.0
256 1 -0.026578125 -0.00125 -0.008859375 0.0
257 1 -0.026578125 -0.00125 -0.007678125 0.0
258 1 -0.026578125 -0.00125 -0.006496875 7.49709589486e-44
259 1 -0.026578125 -0.00125 -0.005315625 1.5837818957e-05
260 1 -0.026578125 -0.00125 -0.004134375 0.000375787654541
261 1 -0.026578125 -0.00125 -0.002953125 1.77729209249e-06
262 1 -0.026578125 -0.00125 -0.001771875 1.58378774223e-05
263 1 -0.026578125 -0.00125 -0.000590625 4.96854669321e-05
264 1 -0.026578125 -0.00125 0.000590625 1.5837818957e-05
265 1 -0.026578125 -0.00125 0.001771875 1.5837818957e-05
266 1 -0.026578125 -0.00125 0.002953125 6.0154364058e-07
267 1 -0.026578125 -0.00125 0.004134375 0.000126656946521
268 1 -0.026578125 -0.00125 0.005315625 0.000375787654541
269 1 -0.026578125 -0.00125 0.006496875 1.48545584418e-16
270 1 -0.026578125 -0.00125 0.007678125 0.0
271 1 -0.026578125 -0.00125 0.008859375 0.0
272 1 -0.026578125 -0.00125 0.010040625 0.0
273 1 -0.026578125 -0.00125 0.011221875 0.0
274 1 -0.026578125 -0.00125 0.012403125 0.0
275 1 -0.026578125 -0.00125 0.013584375 0.0
276 1 -0.026578125 -0.00125 0.014765625 0.0
277 1 -0.026578125 -0.00125 0.015946875 2.79378975481e-22
278 1 -0.026578125 -0.00125 0.017128125 0.205179062488
279 1 -0.026578125 -0.00125 0.018309375 0.186171540908
280 1 -0.026578125 -0.00125 0.019490625 0.00118682874801
281 1 -0.026578125 -0.00125 0.020671875 0.00118682874801
282 1 -0.026578125 -0.00125 0.021853125 0.000126658700522
283 1 -0.026578125 -0.00125 0.023034375 0.000126658700522
284 1 -0.026578125 -0.00125 0.024215625 2.16149781974e-05
285 1 -0.026578125 -0.00125 0.025396875 0.0
286 1 -0.026578125 -0.00125 0.026578125 0.0
287 1 -0.025396875 -0.00125 -0.026578125 0.0
288 1 -0.025396875 -0.00125 -0.025396875 0.0
289 1 -0.025396875 -0.00125 -0.024215625 0.0
290 1 -0.025396875 -0.00125 -0.023034375 0.0
291 1 -0.025396875 -0.00125 -0.021853125 0.0
292 1 -0.025396875 -0.00125 -0.020671875 0.0
293 1 -0.025396875 -0.00125 -0.019490625 0.0267810299687
294 1 -0.025396875 -0.00125 -0.018309375 0.321195978177
295 1 -0.025396875 -0.00125 -0.017128125 0.00154813293271
296 1 -0.025396875 -0.00125 -0.015946875 0.0
297 1 -0.025396875 -0.00125 -0.014765625 0.0
298 1 -0.025396875 -0.00125 -0.013584375 0.0
299 1 -0.025396875 -0.00125 -0.012403125 0.0
300 1 -0.025396875 -0.00125 -0.011221875 1.22156214432e-15
301 1 -0.025396875 -0.00125 -0.010040625 0.00322594350264
302 1 -0.025396875 -0.00125 -0.008859375 0.0550579642476
303 1 -0.025396875 -0.00125 -0.007678125 0.0622852495443
304 1 -0.025396875 -0.00125 -0.006496875 0.172658474079
305 1 -0.025396875 -0.00125 -0.005315625 0.21372123369
306 1 -0.025396875 -0.00125 -0.004134375 0.321195978177
307 1 -0.025396875 -0.00125 -0.002953125 0.235286796702
308 1 -0.025396875 -0.00125 -0.001771875 0.274673256093
309 1 -0.025396875 -0.00125 -0.000590625 0.303422785529
310 1 -0.025396875 -0.00125 0.000590625 0.274673256093
311 1 -0.025396875 -0.00125 0.001771875 0.235286796702
312 1 -0.025396875 -0.00125 0.002953125 0.235286796702
313 1 -0.025396875 -0.00125 0.004134375 0.298987939022
314 1 -0.025396875 -0.00125 0.005315625 0.3791971081
315 1 -0.025396875 -0.00125 0.006496875 0.114531842656
316 1 -0.025396875 -0.00125 0.007678125 1.22156214432e-15
317 1 -0.025396875 -0.00125 0.008859375 0.0
318 1 -0.025396875 -0.00125 0.010040625 6.01557630165e-07
319 1 -0.025396875 -0.00125 0.011221875 0.0
320 1 -0.025396875 -0.00125 0.012403125 0.0
321 1 -0.025396875 -0.00125 0.013584375 0.0
322 1 -0.025396875 -0.00125 0.014765625 0.0
323 1 -0.025396875 -0.00125 0.015946875 6.01557630165e-07
324 1 -0.025396875 -0.00125 0.017128125 0.186171540908
325 1 -0.025396875 -0.00125 0.018309375 0.186171540908
326 1 -0.025396875 -0.00125 0.019490625 0.000535662176186
327 1 -0.025396875 -0.00125 0.020671875 6.01557630165e-07
328 1 -0.025396875 -0.00125 0.021853125 0.0
329 1 -0.025396875 -0.00125 0.023034375 0.0
330 1 -0.025396875 -0.00125 0.024215625 0.0
331 1 -0.025396875 -0.00125 0.025396875 0.0
332 1 -0.025396875 -0.00125 0.026578125 0.0
333 1 -0.024215625 -0.00125 -0.027759375 0.0
334 1 -0.024215625 -0.00125 -0.026578125 0.0
335 1 -0.024215625 -0.00125 -0.025396875 0.0
336 1 -0.024215625 -0.00125 -0.024215625 0.0
337 1 -0.024215625 -0.00125 -0.023034375 0.0
338 1 -0.024215625 -0.00125 -0.021853125 0.0
339 1 -0.024215625 -0.00125 -0.020671875 1.74019667629e-11
340 1 -0.024215625 -0.00125 -0.019490625 1.58378774223e-05
341 1 -0.024215625 -0.00125 -0.018309375 0.620802845142
342 1 -0.024215625 -0.00125 -0.017128125 0.0622852495443
343 1 -0.024215625 -0.00125 -0.015946875 0.00154813293271
344 1 -0.024215625 -0.00125 -0.014765625 0.0
345 1 -0.024215625 -0.00125 -0.013584375 2.79378975481e-22
346 1 -0.024215625 -0.00125 -0.012403125 0.000299131636816
347 1 -0.024215625 -0.00125 -0.011221875 0.010721438861
348 1 -0.024215625 -0.00125 -0.010040625 0.0622852805866
349 1 -0.024215625 -0.00125 -0.008859375 0.114532114604
350 1 -0.024215625 -0.00125 -0.007678125 0.298987939022
351 1 -0.024215625 -0.00125 -0.006496875 0.312303116458
352 1 -0.024215625 -0.00125 -0.005315625 0.133535038668
353 1 -0.024215625 -0.00125 -0.004134375 0.133535038668
354 1 -0.024215625 -0.00125 -0.002953125 0.303423296049
355 1 -0.024215625 -0.00125 -0.001771875 0.224469737872
356 1 -0.024215625 -0.00125 -0.000590625 0.224469737872
357 1 -0.024215625 -0.00125 0.000590625 0.263674497482
358 1 -0.024215625 -0.00125 0.001771875 0.186171540908
359 1 -0.024215625 -0.00125 0.002953125 0.224469737872
360 1 -0.024215625 -0.00125 0.004134375 0.21372123369
361 1 -0.024215625 -0.00125 0.005315625 0.133535038668
362 1 -0.024215625 -0.00125 0.006496875 0.277980204193
363 1 -0.024215625 -0.00125 0.007678125 0.091233852548
364 1 -0.024215625 -0.00125 0.008859375 0.0381872649833
365 1 -0.024215625 -0.00125 0.010040625 0.07461867463
366 1 -0.024215625 -0.00125 0.011221875 0.000126657572948
367 1 -0.024215625 -0.00125 0.012403125 0.0
368 1 -0.024215625 -0.00125 0.013584375 0.0
369 1 -0.024215625 -0.00125 0.014765625 0.0
370 1 -0.024215625 -0.00125 0.015946875 0.000126658700522
371 1 -0.024215625 -0.00125 0.017128125 0.252716464147
372 1 -0.024215625 -0.00125 0.018309375 0.123928325831
373 1 -0.024215625 -0.00125 0.019490625 1.77731074088e-06
374 1 -0.024215625 -0.00125 0.020671875 1.74019667629e-11
375 1 -0.024215625 -0.00125 0.021853125 0.0
376 1 -0.024215625 -0.00125 0.023034375 0.0
377 1 -0.024215625 -0.00125 0.024215625 0.0
378 1 -0.024215625 -0.00125 0.025396875 0.0
379 1 -0.024215625 -0.00125 0.026578125 0.0
380 1 -0.024215625 -0.00125 0.027759375 0.0
381 1 -0.023034375 -0.00125 -0.027759375 0.0
382 1 -0.023034375 -0.00125 -0.026578125 0.0
383 1 -0.023034375 -0.00125 -0.025396875 0.0
384 1 -0.023034375 -0.00125 -0.024215625 0.0
385 1 -0.023034375 -0.00125 -0.023034375 0.0
386 1 -0.023034375 -0.00125 -0.021853125 0.0
387 1 -0.023034375 -0.00125 -0.020671875 0.0
388 1 -0.023034375 -0.00125 -0.019490625 3.07878012444e-05
389 1 -0.023034375 -0.00125 -0.018309375 0.441823107051
390 1 -0.023034375 -0.00125 -0.017128125 0.252716464147
391 1 -0.023034375 -0.00125 -0.015946875 0.0
392 1 -0.023034375 -0.00125 -0.014765625 0.0
393 1 -0.023034375 -0.00125 -0.013584375 0.0
394 1 -0.023034375 -0.00125 -0.012403125 0.000126657572948
395 1 -0.023034375 -0.00125 -0.011221875 0.01386971523
396 1 -0.023034375 -0.00125 -0.010040625 0.000891017573599
397 1 -0.023034375 -0.00125 -0.008859375 0.000126657572948
398 1 -0.023034375 -0.00125 -0.007678125 0.01386971523
399 1 -0.023034375 -0.00125 -0.006496875 0.000126656946521
400 1 -0.023034375 -0.00125 -0.005315625 0.00154813293271
401 1 -0.023034375 -0.00125 -0.004134375 0.00249557865471
402 1 -0.023034375 -0.00125 -0.002953125 0.00474644221021
403 1 -0.023034375 -0.00125 -0.001771875 0.0293069224194
404 1 -0.023034375 -0.00125 -0.000590625 0.00284458163855
405 1 -0.023034375 -0.00125 0.000590625 0.00154812961495
406 1 -0.023034375 -0.00125 0.001771875 0.00154812961495
407 1 -0.023034375 -0.00125 0.002953125 0.00474644221021
408 1 -0.023034375 -0.00125 0.004134375 1.74019667629e-11
409 1 -0.023034375 -0.00125 0.005315625 4.52227625942e-06
410 1 -0.023034375 -0.00125 0.006496875 0.0335972786663
411 1 -0.023034375 -0.00125 0.007678125 0.169569358233
412 1 -0.023034375 -0.00125 0.008859375 0.196692230435
413 1 -0.023034375 -0.00125 0.010040625 0.186171540908
414 1 -0.023034375 -0.00125 0.011221875 0.175758893257
415 1 -0.023034375 -0.00125 0.012403125 0.0443322841124
416 1 -0.023034375 -0.00125 0.013584375 3.14925560351e-13
417 1 -0.023034375 -0.00125 0.014765625 1.74019667629e-11
418 1 -0.023034375 -0.00125 0.015946875 0.091233852548
419 1 -0.023034375 -0.00125 0.017128125 0.224469737872
420 1 -0.023034375 -0.00125 0.018309375 0.00474645121499
421 1 -0.023034375 -0.00125 0.019490625 1.60801117159e-09
422 1 -0.023034375 -0.00125 0.020671875 0.0
423 1 -0.023034375 -0.00125 0.021853125 6.01557630165e-07
424 1 -0.023034375 -0.00125 0.023034375 1.22156214432e-15
425 1 -0.023034375 -0.00125 0.024215625 0.0
426 1 -0.023034375 -0.00125 0.025396875 0.0
427 1 -0.023034375 -0.00125 0.026578125 0.0
428 1 -0.023034375 -0.00125 0.027759375 0.0
429 1 -0.021853125 -0.00125 -0.028940625 0.0
430 1 -0.021853125 -0.00125 -0.027759375 0.0
431 1 -0.021853125 -0.00125 -0.026578125 0.0
432 1 -0.021853125 -0.00125 -0.025396875 0.0
433 1 -0.021853125 -0.00125 -0.024215625 0.0
434 1 -0.021853125 -0.00125 -0.023034375 0.0
435 1 -0.021853125 -0.00125 -0.021853125 0.0
436 1 -0.021853125 -0.00125 -0.020671875 0.0
437 1 -0.021853125 -0.00125 -0.019490625 1.58378774223e-05
438 1 -0.021853125 -0.00125 -0.018309375 0.383667992273
439 1 -0.021853125 -0.00125 -0.017128125 0.186171540908
440 1 -0.021853125 -0.00125 -0.015946875 0.0
441 1 -0.021853125 -0.00125 -0.014765625 1.74019667629e-11
442 1 -0.021853125 -0.00125 -0.013584375 4.52221866893e-06
443 1 -0.021853125 -0.00125 -0.012403125 0.0
444 1 -0.021853125 -0.00125 -0.011221875 0.0
445 1 -0.021853125 -0.00125 -0.010040625 0.0
446 1 -0.021853125 -0.00125 -0.008859375 0.0
447 1 -0.021853125 -0.00125 -0.007678125 0.0
448 1 -0.021853125 -0.00125 -0.006496875 2.79378975481e-22
449 1 -0.021853125 -0.00125 -0.005315625 0.000126657572948
450 1 -0.021853125 -0.00125 -0.004134375 4.42606186288e-05
451 1 -0.021853125 -0.00125 -0.002953125 0.00474645121499
452 1 -0.021853125 -0.00125 -0.001771875 0.0482288221451
453 1 -0.021853125 -0.00125 -0.000590625 0.00393678120915
454 1 -0.021853125 -0.00125 0.000590625 0.000891023127979
455 1 -0.021853125 -0.00125 0.001771875 0.000126658700522
456 1 -0.021853125 -0.00125 0.002953125 0.0
457 1 -0.021853125 -0.00125 0.004134375 0.0
458 1 -0.021853125 -0.00125 0.005315625 0.0
459 1 -0.021853125 -0.00125 0.006496875 1.28752206004e-08
460 1 -0.021853125 -0.00125 0.007678125 0.00154813293271
461 1 -0.021853125 -0.00125 0.008859375 0.00668184101894
462 1 -0.021853125 -0.00125 0.010040625 0.00668182974929
463 1 -0.021853125 -0.00125 0.011221875 0.123928325831
464 1 -0.021853125 -0.00125 0.012403125 0.14929428164
465 1 -0.021853125 -0.00125 0.013584375 6.01557630165e-07
466 1 -0.021853125 -0.00125 0.014765625 6.01557630165e-07
467 1 -0.021853125 -0.00125 0.015946875 0.40155560828
468 1 -0.021853125 -0.00125 0.017128125 0.123928325831
469 1 -0.021853125 -0.00125 0.018309375 0.000126658700522
470 1 -0.021853125 -0.00125 0.019490625 7.46384686318e-06
471 1 -0.021853125 -0.00125 0.020671875 0.000891023127979
472 1 -0.021853125 -0.00125 0.021853125 0.000126658700522
473 1 -0.021853125 -0.00125 0.023034375 0.00474645121499
474 1 -0.021853125 -0.00125 0.024215625 6.01557630165e-07
475 1 -0.021853125 -0.00125 0.025396875 1.74019667629e-11
476 1 -0.021853125 -0.00125 0.026578125 0.0
477 1 -0.021853125 -0.00125 0.027759375 0.0
478 1 -0.021853125 -0.00125 0.028940625 0.0
479 1 -0.020671875 -0.00125 -0.030121875 0.0
480 1 -0.020671875 -0.00125 -0.028940625 0.0
481 1 -0.020671875 -0.00125 -0.027759375 0.0
482 1 -0.020671875 -0.00125 -0.026578125 0.0
483 1 -0.020671875 -0.00125 -0.025396875 0.0
484 1 -0.020671875 -0.00125 -0.024215625 6.01557630165e-07
485 1 -0.020671875 -0.00125 -0.023034375 1.74019667629e-11
486 1 -0.020671875 -0.00125 -0.021853125 0.0
487 1 -0.020671875 -0.00125 -0.020671875 0.0
488 1 -0.020671875 -0.00125 -0.019490625 0.000126658199377
489 1 -0.020671875 -0.00125 -0.018309375 0.21372123369
490 1 -0.020671875 -0.00125 -0.017128125 0.21372123369
491 1 -0.020671875 -0.00125 -0.015946875 1.74019667629e-11
492 1 -0.020671875 -0.00125 -0.014765625 0.0
493 1 -0.020671875 -0.00125 -0.013584375 3.07877004318e-05
494 1 -0.020671875 -0.00125 -0.012403125 0.0
495 1 -0.020671875 -0.00125 -0.011221875 0.0
496 1 -0.020671875 -0.00125 -0.010040625 0.0
497 1 -0.020671875 -0.00125 -0.008859375 0.0
498 1 -0.020671875 -0.00125 -0.007678125 0.000126657572948
499 1 -0.020671875 -0.00125 -0.006496875 0.0149103845736
500 1 -0.020671875 -0.00125 -0.005315625 0.000466557301994
501 1 -0.020671875 -0.00125 -0.004134375 0.0199375341518
502 1 -0.020671875 -0.00125 -0.002953125 0.0199375166154
503 1 -0.020671875 -0.00125 -0.001771875 0.0622852495443
504 1 -0.020671875 -0.00125 -0.000590625 0.043067770109
505 1 -0.020671875 -0.00125 0.000590625 0.0550579936718
506 1 -0.020671875 -0.00125 0.001771875 0.00322594350264
507 1 -0.020671875 -0.00125 0.002953125 0.0
508 1 -0.020671875 -0.00125 0.004134375 0.0
509 1 -0.020671875 -0.00125 0.005315625 0.0
510 1 -0.020671875 -0.00125 0.006496875 1.77728463318e-06
511 1 -0.020671875 -0.00125 0.007678125 0.00154812961495
512 1 -0.020671875 -0.00125 0.008859375 6.01557630165e-07
513 1 -0.020671875 -0.00125 0.010040625 1.74019667629e-11
514 1 -0.020671875 -0.00125 0.011221875 1.74019667629e-11
515 1 -0.020671875 -0.00125 0.012403125 0.000126657572948
516 1 -0.020671875 -0.00125 0.013584375 0.0412042250543
517 1 -0.020671875 -0.00125 0.014765625 0.149294323427
518 1 -0.020671875 -0.00125 0.015946875 0.551464650233
519 1 -0.020671875 -0.00125 0.017128125 0.00474645121499
520 1 -0.020671875 -0.00125 0.018309375 0.000126658700522
521 1 -0.020671875 -0.00125 0.019490625 0.01386971523
522 1 -0.020671875 -0.00125 0.020671875 0.00474645121499
523 1 -0.020671875 -0.00125 0.021853125 0.0138696939255
524 1 -0.020671875 -0.00125 0.023034375 0.0138696939255
525 1 -0.020671875 -0.00125 0.024215625 0.00474645121499
526 1 -0.020671875 -0.00125 0.025396875 4.52227625942e-06
527 1 -0.020671875 -0.00125 0.026578125 2.79378975481e-22
528 1 -0.020671875 -0.00125 0.027759375 0.0
529 1 -0.020671875 -0.00125 0.028940625 0.0
530 1 -0.020671875 -0.00125 0.030121875 0.0
531 1 -0.019490625 -0.00125 -0.031303125 0.0
532 1 -0.019490625 -0.00125 -0.030121875 0.0
533 1 -0.019490625 -0.00125 -0.028940625 3.14925560351e-13
534 1 -0.019490625 -0.00125 -0.027759375 1.5838087899e-05
535 1 -0.019490625 -0.00125 -0.026578125 0.000126658700522
536 1 -0.019490625 -0.00125 -0.025396875 0.00118682874801
537 1 -0.019490625 -0.00125 -0.024215625 0.00284458672872
538 1 -0.019490625 -0.00125 -0.023034375 0.00284458672872
539 1 -0.019490625 -0.00125 -0.021853125 0.000535662176186
540 1 -0.019490625 -0.00125 -0.020671875 1.77731074088e-06
541 1 -0.019490625 -0.00125 -0.019490625 0.00371338382724
542 1 -0.019490625 -0.00125 -0.018309375 0.00855160641309
543 1 -0.019490625 -0.00125 -0.017128125 0.395964189304
544 1 -0.019490625 -0.00125 -0.015946875 0.0443321509394
545 1 -0.019490625 -0.00125 -0.014765625 0.0
546 1 -0.019490625 -0.00125 -0.013584375 2.79378975481e-22
547 1 -0.019490625 -0.00125 -0.012403125 7.02299466978e-08
548 1 -0.019490625 -0.00125 -0.011221875 0.00284459563651
549 1 -0.019490625 -0.00125 -0.010040625 0.0207857392191
550 1 -0.019490625 -0.00125 -0.008859375 0.0622852650654
551 1 -0.019490625 -0.00125 -0.007678125 0.0381874012468
552 1 -0.019490625 -0.00125 -0.006496875 0.0158117332999
553 1 -0.019490625 -0.00125 -0.005315625 0.0622852495443
554 1 -0.019490625 -0.00125 -0.004134375 0.0683382082321
555 1 -0.019490625 -0.00125 -0.002953125 0.00474644221021
556 1 -0.019490625 -0.00125 -0.001771875 1.58378774223e-05
557 1 -0.019490625 -0.00125 -0.000590625 0.000335789566074
558 1 -0.019490625 -0.00125 0.000590625 0.107179814045
559 1 -0.019490625 -0.00125 0.001771875 0.186171540908
560 1 -0.019490625 -0.00125 0.002953125 0.0412041736236
561 1 -0.019490625 -0.00125 0.004134375 0.00228020631897
562 1 -0.019490625 -0.00125 0.005315625 0.00089101923991
563 1 -0.019490625 -0.00125 0.006496875 1.28753464495e-08
564 1 -0.019490625 -0.00125 0.007678125 3.14925560351e-13
565 1 -0.019490625 -0.00125 0.008859375 2.79378975481e-22
566 1 -0.019490625 -0.00125 0.010040625 2.79378975481e-22
567 1 -0.019490625 -0.00125 0.011221875 0.000126656946521
568 1 -0.019490625 -0.00125 0.012403125 3.07879020573e-05
569 1 -0.019490625 -0.00125 0.013584375 0.000696616058092
570 1 -0.019490625 -0.00125 0.014765625 0.355743098645
571 1 -0.019490625 -0.00125 0.015946875 0.375844735892
572 1 -0.019490625 -0.00125 0.017128125 0.00284458672872
573 1 -0.019490625 -0.00125 0.018309375 0.00284458672872
574 1 -0.019490625 -0.00125 0.019490625 0.0171258722958
575 1 -0.019490625 -0.00125 0.020671875 0.0138696939255
576 1 -0.019490625 -0.00125 0.021853125 0.0138696939255
577 1 -0.019490625 -0.00125 0.023034375 0.0085515641959
578 1 -0.019490625 -0.00125 0.024215625 0.00284458672872
579 1 -0.019490625 -0.00125 0.025396875 1.5838087899e-05
580 1 -0.019490625 -0.00125 0.026578125 7.49709589486e-44
581 1 -0.019490625 -0.00125 0.027759375 0.0
582 1 -0.019490625 -0.00125 0.028940625 0.0
583 1 -0.019490625 -0.00125 0.030121875 3.16238391522e-06
584 1 -0.019490625 -0.00125 0.031303125 8.50218305249e-07
585 1 -0.018309375 -0.00125 -0.032484375 0.0
586 1 -0.018309375 -0.00125 -0.031303125 0.0
587 1 -0.018309375 -0.00125 -0.030121875 0.0
588 1 -0.018309375 -0.00125 -0.028940625 0.0
589 1 -0.018309375 -0.00125 -0.027759375 0.0
590 1 -0.018309375 -0.00125 -0.026578125 0.0