ITEM: TIMESTEP
0
ITEM: NUMBER OF ATOMS
3080
ITEM: BOX BOUNDS ss ss ss
-3.7007399999999996e-02 3.7007399999999996e-02
-2.0002499999999999e-03 2.5000000000000004e-07
-3.7007399999999996e-02 3.7007399999999996e-02
ITEM: ATOMS id type x y z c_1
0 1 -0.037209375 -0.00125 -0.000590625 8.19548828049e-05
1 1 -0.036028125 -0.00125 -0.007678125 0.0
2 1 -0.036028125 -0.00125 -0.006496875 0.0
3 1 -0.036028125 -0.00125 -0.005315625 0.0
4 1 -0.036028125 -0.00125 -0.004134375 0.0
5 1 -0.036028125 -0.00125 -0.002953125 0.0
6 1 -0.036028125 -0.00125 -0.001771875 0.0
7 1 -0.036028125 -0.00125 -0.000590625 0.0
8 1 -0.036028125 -0.00125 0.000590625 5.44412977554e-09
9 1 -0.036028125 -0.00125 0.001771875 0.00207820714601
10 1 -0.036028125 -0.00125 0.002953125 0.305641348789
11 1 -0.036028125 -0.00125 0.004134375 0.341241260337
12 1 -0.036028125 -0.00125 0.005315625 0.0125514868443
13 1 -0.036028125 -0.00125 0.006496875 0.000104426574864
14 1 -0.036028125 -0.00125 0.007678125 0.175581592063
15 1 -0.034846875 -0.00125 -0.011221875 0.0269362422409
16 1 -0.034846875 -0.00125 -0.010040625 0.0272764965236
17 1 -0.034846875 -0.00125 -0.008859375 0.00753996946909
18 1 -0.034846875 -0.00125 -0.007678125 1.18026294841e-10
19 1 -0.034846875 -0.00125 -0.006496875 0.0
20 1 -0.034846875 -0.00125 -0.005315625 0.0
21 1 -0.034846875 -0.00125 -0.004134375 0.0
22 1 -0.034846875 -0.00125 -0.002953125 0.0
23 1 -0.034846875 -0.00125 -0.001771875 0.0
24 1 -0.034846875 -0.00125 -0.000590625 0.0
25 1 -0.034846875 -0.00125 0.000590625 1.22156214432e-15
26 1 -0.034846875 -0.00125 0.001771875 0.105365860212
27 1 -0.034846875 -0.00125 0.002953125 0.59844434493
28 1 -0.034846875 -0.00125 0.004134375 0.580549910179
29 1 -0.034846875 -0.00125 0.005315625 0.511187741896
30 1 -0.034846875 -0.00125 0.006496875 0.199867928267
31 1 -0.034846875 -0.00125 0.007678125 0.123537956966
32 1 -0.034846875 -0.00125 0.008859375 0.232375684815
33 1 -0.034846875 -0.00125 0.010040625 0.101769232712
34 1 -0.034846875 -0.00125 0.011221875 0.196571483844
35 1 -0.033665625 -0.00125 -0.013584375 0.0
36 1 -0.033665625 -0.00125 -0.012403125 0.00106278235535
37 1 -0.033665625 -0.00125 -0.011221875 0.0151198004572
38 1 -0.033665625 -0.00125 -0.010040625 0.091233852548
39 1 -0.033665625 -0.00125 -0.008859375 0.091233852548
40 1 -0.033665625 -0.00125 -0.007678125 0.000126657572948
41 1 -0.033665625 -0.00125 -0.006496875 0.0
42 1 -0.033665625 -0.00125 -0.005315625 0.0
43 1 -0.033665625 -0.00125 -0.004134375 0.0
44 1 -0.033665625 -0.00125 -0.002953125 0.0
45 1 -0.033665625 -0.00125 -0.001771875 0.0
46 1 -0.033665625 -0.00125 -0.000590625 0.0
47 1 -0.033665625 -0.00125 0.000590625 4.42606186288e-05
48 1 -0.033665625 -0.00125 0.001771875 0.114532075754
49 1 -0.033665625 -0.00125 0.002953125 0.649836265644
50 1 -0.033665625 -0.00125 0.004134375 0.540277181315
51 1 -0.033665625 -0.00125 0.005315625 0.5
52 1 -0.033665625 -0.00125 0.006496875 0.554820557537
53 1 -0.033665625 -0.00125 0.007678125 0.235287296038
54 1 -0.033665625 -0.00125 0.008859375 0.175758893257
55 1 -0.033665625 -0.00125 0.010040625 0.235287296038
56 1 -0.033665625 -0.00125 0.011221875 0.379394804677
57 1 -0.033665625 -0.00125 0.012403125 0.477560153512
58 1 -0.033665625 -0.00125 0.013584375 1.22148603069e-15
59 1 -0.032484375 -0.00125 -0.018309375 0.00920066229086
60 1 -0.032484375 -0.00125 -0.017128125 0.00106278235535
61 1 -0.032484375 -0.00125 -0.015946875 5.01543484759e-08
62 1 -0.032484375 -0.00125 -0.014765625 2.32064660948e-05
63 1 -0.032484375 -0.00125 -0.013584375 0.0
64 1 -0.032484375 -0.00125 -0.012403125 2.79378975481e-22
65 1 -0.032484375 -0.00125 -0.011221875 2.79378975481e-22
66 1 -0.032484375 -0.00125 -0.010040625 0.00037578590857
67 1 -0.032484375 -0.00125 -0.008859375 0.119202686097
68 1 -0.032484375 -0.00125 -0.007678125 0.109918840843
69 1 -0.032484375 -0.00125 -0.006496875 0.000419307600719
70 1 -0.032484375 -0.00125 -0.005315625 1.77729209249e-06
71 1 -0.032484375 -0.00125 -0.004134375 1.28754471296e-08
72 1 -0.032484375 -0.00125 -0.002953125 1.28754471296e-08
73 1 -0.032484375 -0.00125 -0.001771875 0.000126657322377
74 1 -0.032484375 -0.00125 -0.000590625 2.88263880801e-06
75 1 -0.032484375 -0.00125 0.000590625 0.000126657823519
76 1 -0.032484375 -0.00125 0.001771875 0.0762230739123
77 1 -0.032484375 -0.00125 0.002953125 0.281290170023
78 1 -0.032484375 -0.00125 0.004134375 0.413857399951
79 1 -0.032484375 -0.00125 0.005315625 0.450772858521
80 1 -0.032484375 -0.00125 0.006496875 0.384226763351
81 1 -0.032484375 -0.00125 0.007678125 0.252716738676
82 1 -0.032484375 -0.00125 0.008859375 0.361324261622
83 1 -0.032484375 -0.00125 0.010040625 0.525732553122
84 1 -0.032484375 -0.00125 0.011221875 0.74728321557
85 1 -0.032484375 -0.00125 0.012403125 0.5
86 1 -0.032484375 -0.00125 0.013584375 0.000225539605153
87 1 -0.032484375 -0.00125 0.014765625 0.00437769447339
88 1 -0.032484375 -0.00125 0.015946875 0.117175589424
89 1 -0.032484375 -0.00125 0.017128125 0.320687946562
90 1 -0.032484375 -0.00125 0.018309375 0.395293880582
91 1 -0.031303125 -0.00125 -0.019490625 0.00482559872057
92 1 -0.031303125 -0.00125 -0.018309375 0.279862138418
93 1 -0.031303125 -0.00125 -0.017128125 0.159358746116
94 1 -0.031303125 -0.00125 -0.015946875 0.0175125891118
95 1 -0.031303125 -0.00125 -0.014765625 0.000126658700522
96 1 -0.031303125 -0.00125 -0.013584375 1.74019667629e-11
97 1 -0.031303125 -0.00125 -0.012403125 0.0
98 1 -0.031303125 -0.00125 -0.011221875 0.000299131636816
99 1 -0.031303125 -0.00125 -0.010040625 0.00154813293271
100 1 -0.031303125 -0.00125 -0.008859375 0.0138696939255
101 1 -0.031303125 -0.00125 -0.007678125 0.123928325831
102 1 -0.031303125 -0.00125 -0.006496875 0.10266431786
103 1 -0.031303125 -0.00125 -0.005315625 0.0778403011007
104 1 -0.031303125 -0.00125 -0.004134375 0.0698876476892
105 1 -0.031303125 -0.00125 -0.002953125 0.159358746116
106 1 -0.031303125 -0.00125 -0.001771875 0.303422785529
107 1 -0.031303125 -0.00125 -0.000590625 0.133534957453
108 1 -0.031303125 -0.00125 0.000590625 0.0509111013046
109 1 -0.031303125 -0.00125 0.001771875 0.123928325831
110 1 -0.031303125 -0.00125 0.002953125 0.139391385346
111 1 -0.031303125 -0.00125 0.004134375 0.0827704306511
112 1 -0.031303125 -0.00125 0.005315625 0.0347170643937
113 1 -0.031303125 -0.00125 0.006496875 0.00393675578935
114 1 -0.031303125 -0.00125 0.007678125 0.0698876476892
115 1 -0.031303125 -0.00125 0.008859375 0.769047847884
116 1 -0.031303125 -0.00125 0.010040625 0.5
117 1 -0.031303125 -0.00125 0.011221875 0.569364654976
118 1 -0.031303125 -0.00125 0.012403125 0.511187741896
119 1 -0.031303125 -0.00125 0.013584375 0.286812771634
120 1 -0.031303125 -0.00125 0.014765625 0.314525490432
121 1 -0.031303125 -0.00125 0.015946875 0.263674497482
122 1 -0.031303125 -0.00125 0.017128125 0.667673396678
123 1 -0.031303125 -0.00125 0.018309375 0.471767057813
124 1 -0.031303125 -0.00125 0.019490625 0.228758009028
125 1 -0.030121875 -0.00125 -0.020671875 0.0160293155099
126 1 -0.030121875 -0.00125 -0.019490625 0.0182072583615
127 1 -0.030121875 -0.00125 -0.018309375 0.091233852548
128 1 -0.030121875 -0.00125 -0.017128125 0.241806863156
129 1 -0.030121875 -0.00125 -0.015946875 0.114532075754
130 1 -0.030121875 -0.00125 -0.014765625 0.01386971523
131 1 -0.030121875 -0.00125 -0.013584375 0.000126658199377
132 1 -0.030121875 -0.00125 -0.012403125 0.0
133 1 -0.030121875 -0.00125 -0.011221875 0.010721438861
134 1 -0.030121875 -0.00125 -0.010040625 0.149294365213
135 1 -0.030121875 -0.00125 -0.008859375 0.0443322841124
136 1 -0.030121875 -0.00125 -0.007678125 0.0509111439139
137 1 -0.030121875 -0.00125 -0.006496875 0.141358161149
138 1 -0.030121875 -0.00125 -0.005315625 0.133535038668
139 1 -0.030121875 -0.00125 -0.004134375 0.133535038668
140 1 -0.030121875 -0.00125 -0.002953125 0.252716464147
141 1 -0.030121875 -0.00125 -0.001771875 0.372493358291
142 1 -0.030121875 -0.00125 -0.000590625 0.393952174697
143 1 -0.030121875 -0.00125 0.000590625 0.307306645813
144 1 -0.030121875 -0.00125 0.001771875 0.159359297692
145 1 -0.030121875 -0.00125 0.002953125 0.0443322841124
146 1 -0.030121875 -0.00125 0.004134375 0.00154812961495
147 1 -0.030121875 -0.00125 0.005315625 6.01557630165e-07
148 1 -0.030121875 -0.00125 0.006496875 0.000126657572948
149 1 -0.030121875 -0.00125 0.007678125 0.0107214510125
150 1 -0.030121875 -0.00125 0.008859375 0.551464182117
151 1 -0.030121875 -0.00125 0.010040625 0.60962547119
152 1 -0.030121875 -0.00125 0.011221875 0.5
153 1 -0.030121875 -0.00125 0.012403125 0.569364654976
154 1 -0.030121875 -0.00125 0.013584375 0.470911218712
155 1 -0.030121875 -0.00125 0.014765625 0.580550471812
156 1 -0.030121875 -0.00125 0.015946875 0.511187741896
157 1 -0.030121875 -0.00125 0.017128125 0.459723333625
158 1 -0.030121875 -0.00125 0.018309375 0.627507109162
159 1 -0.030121875 -0.00125 0.019490625 0.395241016122
160 1 -0.030121875 -0.00125 0.020671875 0.00466864259094
161 1 -0.028940625 -0.00125 -0.021853125 0.056860843261
162 1 -0.028940625 -0.00125 -0.020671875 0.0883132430206
163 1 -0.028940625 -0.00125 -0.019490625 0.0443322841124
164 1 -0.028940625 -0.00125 -0.018309375 0.0999860491522
165 1 -0.028940625 -0.00125 -0.017128125 0.0443322841124
166 1 -0.028940625 -0.00125 -0.015946875 0.0443322841124
167 1 -0.028940625 -0.00125 -0.014765625 0.14929428164
168 1 -0.028940625 -0.00125 -0.013584375 0.0762228717045
169 1 -0.028940625 -0.00125 -0.012403125 0.000891017573599
170 1 -0.028940625 -0.00125 -0.011221875 0.0243767952624
171 1 -0.028940625 -0.00125 -0.010040625 0.350163267536
172 1 -0.028940625 -0.00125 -0.008859375 0.292342717184
173 1 -0.028940625 -0.00125 -0.007678125 0.0999860491522
174 1 -0.028940625 -0.00125 -0.006496875 0.141358367253
175 1 -0.028940625 -0.00125 -0.005315625 0.159358746116
176 1 -0.028940625 -0.00125 -0.004134375 0.10900325236
177 1 -0.028940625 -0.00125 -0.002953125 0.01386971523
178 1 -0.028940625 -0.00125 -0.001771875 0.230952152116
179 1 -0.028940625 -0.00125 -0.000590625 0.734128718845
180 1 -0.028940625 -0.00125 0.000590625 0.486574391635
181 1 -0.028940625 -0.00125 0.001771875 0.0381872649833
182 1 -0.028940625 -0.00125 0.002953125 0.0999860491522
183 1 -0.028940625 -0.00125 0.004134375 1.22156214432e-15
184 1 -0.028940625 -0.00125 0.005315625 0.0
185 1 -0.028940625 -0.00125 0.006496875 2.79378975481e-22
186 1 -0.028940625 -0.00125 0.007678125 0.000126657572948
187 1 -0.028940625 -0.00125 0.008859375 0.149294323427
188 1 -0.028940625 -0.00125 0.010040625 0.493287429666
189 1 -0.028940625 -0.00125 0.011221875 0.736325502518
190 1 -0.028940625 -0.00125 0.012403125 0.540276713188
191 1 -0.028940625 -0.00125 0.013584375 0.292342717184
192 1 -0.028940625 -0.00125 0.014765625 0.303422785529
193 1 -0.028940625 -0.00125 0.015946875 0.488811743157
194 1 -0.028940625 -0.00125 0.017128125 0.707657282816
195 1 -0.028940625 -0.00125 0.018309375 0.68991847806
196 1 -0.028940625 -0.00125 0.019490625 0.404910014131
197 1 -0.028940625 -0.00125 0.020671875 0.207498309078
198 1 -0.028940625 -0.00125 0.021853125 0.315788336106
199 1 -0.027759375 -0.00125 -0.024215625 0.0
200 1 -0.027759375 -0.00125 -0.023034375 8.19548828049e-05
201 1 -0.027759375 -0.00125 -0.021853125 0.000245540111831
202 1 -0.027759375 -0.00125 -0.020671875 0.00668182974929
203 1 -0.027759375 -0.00125 -0.019490625 0.0293069007767
204 1 -0.027759375 -0.00125 -0.018309375 0.0443322841124
205 1 -0.027759375 -0.00125 -0.017128125 0.0138696939255
206 1 -0.027759375 -0.00125 -0.015946875 0.01386971523
207 1 -0.027759375 -0.00125 -0.014765625 0.091233852548
208 1 -0.027759375 -0.00125 -0.013584375 0.141358161149
209 1 -0.027759375 -0.00125 -0.012403125 0.0698876802493
210 1 -0.027759375 -0.00125 -0.011221875 0.091233852548
211 1 -0.027759375 -0.00125 -0.010040625 0.321196490136
212 1 -0.027759375 -0.00125 -0.008859375 0.569364093285
213 1 -0.027759375 -0.00125 -0.007678125 0.186171540908
214 1 -0.027759375 -0.00125 -0.006496875 0.172658474079
215 1 -0.027759375 -0.00125 -0.005315625 0.21372123369
216 1 -0.027759375 -0.00125 -0.004134375 0.00668182974929
217 1 -0.027759375 -0.00125 -0.002953125 0.000299132858986
218 1 -0.027759375 -0.00125 -0.001771875 0.00154813293271
219 1 -0.027759375 -0.00125 -0.000590625 0.51454426063
220 1 -0.027759375 -0.00125 0.000590625 0.813828459092
221 1 -0.027759375 -0.00125 0.001771875 0.580549910179
222 1 -0.027759375 -0.00125 0.002953125 0.368025128148
223 1 -0.027759375 -0.00125 0.004134375 0.0443322841124
224 1 -0.027759375 -0.00125 0.005315625 0.00154813293271
225 1 -0.027759375 -0.00125 0.006496875 1.60801117159e-09
226 1 -0.027759375 -0.00125 0.007678125 0.0243767952624
227 1 -0.027759375 -0.00125 0.008859375 0.213721771478
228 1 -0.027759375 -0.00125 0.010040625 0.091233852548
229 1 -0.027759375 -0.00125 0.011221875 0.482099221396
230 1 -0.027759375 -0.00125 0.012403125 0.350163267536
231 1 -0.027759375 -0.00125 0.013584375 0.0229929791716
232 1 -0.027759375 -0.00125 0.014765625 0.186171540908
233 1 -0.027759375 -0.00125 0.015946875 0.569364093285
234 1 -0.027759375 -0.00125 0.017128125 0.707657282816
235 1 -0.027759375 -0.00125 0.018309375 0.51118821003
236 1 -0.027759375 -0.00125 0.019490625 0.525732272242
237 1 -0.027759375 -0.00125 0.020671875 0.401555093596
238 1 -0.027759375 -0.00125 0.021853125 0.694749666742
239 1 -0.027759375 -0.00125 0.023034375 0.254216889134
240 1 -0.027759375 -0.00125 0.024215625 0.0015255895059
241 1 -0.026578125 -0.00125 -0.026578125 0.0
242 1 -0.026578125 -0.00125 -0.025396875 0.0
243 1 -0.026578125 -0.00125 -0.024215625 0.0
244 1 -0.026578125 -0.00125 -0.023034375 0.0
245 1 -0.026578125 -0.00125 -0.021853125 1.28754471296e-08
246 1 -0.026578125 -0.00125 -0.020671875 0.00565998798415
247 1 -0.026578125 -0.00125 -0.019490625 0.00284458672872
248 1 -0.026578125 -0.00125 -0.018309375 0.0207856853608
249 1 -0.026578125 -0.00125 -0.017128125 0.0085515641959
250 1 -0.026578125 -0.00125 -0.015946875 0.0167442623901
251 1 -0.026578125 -0.00125 -0.014765625 0.00855157475018
252 1 -0.026578125 -0.00125 -0.013584375 0.0710586777212
253 1 -0.026578125 -0.00125 -0.012403125 0.0529662928778
254 1 -0.026578125 -0.00125 -0.011221875 0.0443321376221
255 1 -0.026578125 -0.00125 -0.010040625 0.095575355231
256 1 -0.026578125 -0.00125 -0.008859375 0.425042808253
257 1 -0.026578125 -0.00125 -0.007678125 0.370259144319
258 1 -0.026578125 -0.00125 -0.006496875 0.25271687594
259 1 -0.026578125 -0.00125 -0.005315625 0.263674221838
260 1 -0.026578125 -0.00125 -0.004134375 0.0098718633607
261 1 -0.026578125 -0.00125 -0.002953125 3.07879020573e-05
262 1 -0.026578125 -0.00125 -0.001771875 0.0475687247245
263 1 -0.026578125 -0.00125 -0.000590625 0.303826111301
264 1 -0.026578125 -0.00125 0.000590625 0.392610048351
265 1 -0.026578125 -0.00125 0.001771875 0.505594105103
266 1 -0.026578125 -0.00125 0.002953125 0.496643714826
267 1 -0.026578125 -0.00125 0.004134375 0.698795338138
268 1 -0.026578125 -0.00125 0.005315625 0.669899997565
269 1 -0.026578125 -0.00125 0.006496875 0.338455409675
270 1 -0.026578125 -0.00125 0.007678125 0.425043089086
271 1 -0.026578125 -0.00125 0.008859375 0.470911499592
272 1 -0.026578125 -0.00125 0.010040625 0.254905084124
273 1 -0.026578125 -0.00125 0.011221875 0.447416741208
274 1 -0.026578125 -0.00125 0.012403125 0.425042293394
275 1 -0.026578125 -0.00125 0.013584375 0.00646860545789
276 1 -0.026578125 -0.00125 0.014765625 0.0762228548539
277 1 -0.026578125 -0.00125 0.015946875 0.511188022776
278 1 -0.026578125 -0.00125 0.017128125 0.74728321557
279 1 -0.026578125 -0.00125 0.018309375 0.609625751849
280 1 -0.026578125 -0.00125 0.019490625 0.583905599826
281 1 -0.026578125 -0.00125 0.020671875 0.476505309222
282 1 -0.026578125 -0.00125 0.021853125 0.346817124959
283 1 -0.026578125 -0.00125 0.023034375 0.164446838546
284 1 -0.026578125 -0.00125 0.024215625 0.0241567966192
285 1 -0.026578125 -0.00125 0.025396875 4.75803770454e-08
286 1 -0.026578125 -0.00125 0.026578125 2.52587523623e-07
287 1 -0.025396875 -0.00125 -0.026578125 0.0
288 1 -0.025396875 -0.00125 -0.025396875 0.0
289 1 -0.025396875 -0.00125 -0.024215625 0.0
290 1 -0.025396875 -0.00125 -0.023034375 1.22156214432e-15
291 1 -0.025396875 -0.00125 -0.021853125 0.0381872278205
292 1 -0.025396875 -0.00125 -0.020671875 0.303423296049
293 1 -0.025396875 -0.00125 -0.019490625 0.0267810506
294 1 -0.025396875 -0.00125 -0.018309375 0.0138696939255
295 1 -0.025396875 -0.00125 -0.017128125 0.000891023127979
296 1 -0.025396875 -0.00125 -0.015946875 0.000126658700522
297 1 -0.025396875 -0.00125 -0.014765625 0.000126658700522
298 1 -0.025396875 -0.00125 -0.013584375 0.0098718633607
299 1 -0.025396875 -0.00125 -0.012403125 0.0698876476892
300 1 -0.025396875 -0.00125 -0.011221875 0.091233852548
301 1 -0.025396875 -0.00125 -0.010040625 0.0622852495443
302 1 -0.025396875 -0.00125 -0.008859375 0.39037452881
303 1 -0.025396875 -0.00125 -0.007678125 0.718709829977
304 1 -0.025396875 -0.00125 -0.006496875 0.459723052748
305 1 -0.025396875 -0.00125 -0.005315625 0.339012100871
306 1 -0.025396875 -0.00125 -0.004134375 0.114532075754
307 1 -0.025396875 -0.00125 -0.002953125 0.114532075754
308 1 -0.025396875 -0.00125 -0.001771875 0.252716464147
309 1 -0.025396875 -0.00125 -0.000590625 0.0398629425124
310 1 -0.025396875 -0.00125 0.000590625 0.315636681563
311 1 -0.025396875 -0.00125 0.001771875 0.372493358291
312 1 -0.025396875 -0.00125 0.002953125 0.540276619563
313 1 -0.025396875 -0.00125 0.004134375 0.885467904821
314 1 -0.025396875 -0.00125 0.005315625 0.840641253884
315 1 -0.025396875 -0.00125 0.006496875 0.638675411355
316 1 -0.025396875 -0.00125 0.007678125 0.587261144554
317 1 -0.025396875 -0.00125 0.008859375 0.917229569349
318 1 -0.025396875 -0.00125 0.010040625 0.944942006328
319 1 -0.025396875 -0.00125 0.011221875 0.860608573582
320 1 -0.025396875 -0.00125 0.012403125 0.649836732464
321 1 -0.025396875 -0.00125 0.013584375 0.219086292165
322 1 -0.025396875 -0.00125 0.014765625 0.133535038668
323 1 -0.025396875 -0.00125 0.015946875 0.529089062167
324 1 -0.025396875 -0.00125 0.017128125 0.78627876631
325 1 -0.025396875 -0.00125 0.018309375 0.894634139788
326 1 -0.025396875 -0.00125 0.019490625 0.491049609779
327 1 -0.025396875 -0.00125 0.020671875 0.235286796702
328 1 -0.025396875 -0.00125 0.021853125 0.159358746116
329 1 -0.025396875 -0.00125 0.023034375 0.159358746116
330 1 -0.025396875 -0.00125 0.024215625 0.401555093596
331 1 -0.025396875 -0.00125 0.025396875 0.091233852548
332 1 -0.025396875 -0.00125 0.026578125 3.17562134062e-06
333 1 -0.024215625 -0.00125 -0.027759375 0.0
334 1 -0.024215625 -0.00125 -0.026578125 0.0
335 1 -0.024215625 -0.00125 -0.025396875 0.0
336 1 -0.024215625 -0.00125 -0.024215625 0.0
337 1 -0.024215625 -0.00125 -0.023034375 1.74019667629e-11
338 1 -0.024215625 -0.00125 -0.021853125 0.0293069224194
339 1 -0.024215625 -0.00125 -0.020671875 0.292342717184
340 1 -0.024215625 -0.00125 -0.019490625 0.366908099064
341 1 -0.024215625 -0.00125 -0.018309375 0.0622852495443
342 1 -0.024215625 -0.00125 -0.017128125 1.74019667629e-11
343 1 -0.024215625 -0.00125 -0.015946875 0.0
344 1 -0.024215625 -0.00125 -0.014765625 1.74019667629e-11
345 1 -0.024215625 -0.00125 -0.013584375 0.000126658700522
346 1 -0.024215625 -0.00125 -0.012403125 0.0107214510125
347 1 -0.024215625 -0.00125 -0.011221875 0.224469737872
348 1 -0.024215625 -0.00125 -0.010040625 0.149294323427
349 1 -0.024215625 -0.00125 -0.008859375 0.159358746116
350 1 -0.024215625 -0.00125 -0.007678125 0.60962547119
351 1 -0.024215625 -0.00125 -0.006496875 0.618567776255
352 1 -0.024215625 -0.00125 -0.005315625 0.60962547119
353 1 -0.024215625 -0.00125 -0.004134375 0.372493358291
354 1 -0.024215625 -0.00125 -0.002953125 0.252716464147
355 1 -0.024215625 -0.00125 -0.001771875 0.281290216208
356 1 -0.024215625 -0.00125 -0.000590625 0.0145585026255
357 1 -0.024215625 -0.00125 0.000590625 0.343471904739
358 1 -0.024215625 -0.00125 0.001771875 0.551464182117
359 1 -0.024215625 -0.00125 0.002953125 0.718709829977
360 1 -0.024215625 -0.00125 0.004134375 0.92538132537
361 1 -0.024215625 -0.00125 0.005315625 0.900013988039
362 1 -0.024215625 -0.00125 0.006496875 0.871293311529
363 1 -0.024215625 -0.00125 0.007678125 0.645372821746
364 1 -0.024215625 -0.00125 0.008859375 0.758193091305
365 1 -0.024215625 -0.00125 0.010040625 0.718709829977
366 1 -0.024215625 -0.00125 0.011221875 0.796948028842
367 1 -0.024215625 -0.00125 0.012403125 0.591734853249
368 1 -0.024215625 -0.00125 0.013584375 0.210511756665
369 1 -0.024215625 -0.00125 0.014765625 0.196692230435
370 1 -0.024215625 -0.00125 0.015946875 0.860608573582
371 1 -0.024215625 -0.00125 0.017128125 0.850705216927
372 1 -0.024215625 -0.00125 0.018309375 0.441823107051
373 1 -0.024215625 -0.00125 0.019490625 0.128706688471
374 1 -0.024215625 -0.00125 0.020671875 0.235286796702
375 1 -0.024215625 -0.00125 0.021853125 0.0698876476892
376 1 -0.024215625 -0.00125 0.023034375 0.470910937833
377 1 -0.024215625 -0.00125 0.024215625 0.540276619563
378 1 -0.024215625 -0.00125 0.025396875 0.274673763196
379 1 -0.024215625 -0.00125 0.026578125 0.0149207573622
380 1 -0.024215625 -0.00125 0.027759375 1.7269595626e-06
381 1 -0.023034375 -0.00125 -0.027759375 0.00106278235535
382 1 -0.023034375 -0.00125 -0.026578125 0.0
383 1 -0.023034375 -0.00125 -0.025396875 0.0
384 1 -0.023034375 -0.00125 -0.024215625 0.0
385 1 -0.023034375 -0.00125 -0.023034375 1.74019667629e-11
386 1 -0.023034375 -0.00125 -0.021853125 0.000299131636816
387 1 -0.023034375 -0.00125 -0.020671875 0.00668184101894
388 1 -0.023034375 -0.00125 -0.019490625 0.321195978177
389 1 -0.023034375 -0.00125 -0.018309375 0.40155560828
390 1 -0.023034375 -0.00125 -0.017128125 0.252716464147
391 1 -0.023034375 -0.00125 -0.015946875 0.186171540908
392 1 -0.023034375 -0.00125 -0.014765625 0.186171540908
393 1 -0.023034375 -0.00125 -0.013584375 0.186171540908
394 1 -0.023034375 -0.00125 -0.012403125 0.14929428164
395 1 -0.023034375 -0.00125 -0.011221875 0.241806863156
396 1 -0.023034375 -0.00125 -0.010040625 0.40155560828
397 1 -0.023034375 -0.00125 -0.008859375 0.0698876476892
398 1 -0.023034375 -0.00125 -0.007678125 0.123928325831
399 1 -0.023034375 -0.00125 -0.006496875 0.372493358291
400 1 -0.023034375 -0.00125 -0.005315625 0.714291727259
401 1 -0.023034375 -0.00125 -0.004134375 0.40155560828
402 1 -0.023034375 -0.00125 -0.002953125 0.40155565507
403 1 -0.023034375 -0.00125 -0.001771875 0.303423296049
404 1 -0.023034375 -0.00125 -0.000590625 0.0122342666721
405 1 -0.023034375 -0.00125 0.000590625 0.207309638309
406 1 -0.023034375 -0.00125 0.001771875 0.441823107051
407 1 -0.023034375 -0.00125 0.002953125 0.85070571836
408 1 -0.023034375 -0.00125 0.004134375 0.955667729205
409 1 -0.023034375 -0.00125 0.005315625 0.991943552781
410 1 -0.023034375 -0.00125 0.006496875 0.863545048631
411 1 -0.023034375 -0.00125 0.007678125 0.937714781498
412 1 -0.023034375 -0.00125 0.008859375 0.85070571836
413 1 -0.023034375 -0.00125 0.010040625 0.68991847806
414 1 -0.023034375 -0.00125 0.011221875 0.678804021823
415 1 -0.023034375 -0.00125 0.012403125 0.252716464147
416 1 -0.023034375 -0.00125 0.013584375 0.10717987112
417 1 -0.023034375 -0.00125 0.014765625 0.68991847806
418 1 -0.023034375 -0.00125 0.015946875 0.885467904821
419 1 -0.023034375 -0.00125 0.017128125 0.224469737872
420 1 -0.023034375 -0.00125 0.018309375 0.0293069007767
421 1 -0.023034375 -0.00125 0.019490625 0.146305587116
422 1 -0.023034375 -0.00125 0.020671875 0.169569401239
423 1 -0.023034375 -0.00125 0.021853125 0.551464650233
424 1 -0.023034375 -0.00125 0.023034375 0.609625938955
425 1 -0.023034375 -0.00125 0.024215625 0.430635859907
426 1 -0.023034375 -0.00125 0.025396875 0.303422785529
427 1 -0.023034375 -0.00125 0.026578125 0.277980481053
428 1 -0.023034375 -0.00125 0.027759375 0.0237387238059
429 1 -0.021853125 -0.00125 -0.028940625 0.114236701864
430 1 -0.021853125 -0.00125 -0.027759375 0.112788508618
431 1 -0.021853125 -0.00125 -0.026578125 1.74019667629e-11
432 1 -0.021853125 -0.00125 -0.025396875 0.0
433 1 -0.021853125 -0.00125 -0.024215625 0.0
434 1 -0.021853125 -0.00125 -0.023034375 0.0
435 1 -0.021853125 -0.00125 -0.021853125 0.0
436 1 -0.021853125 -0.00125 -0.020671875 1.74019667629e-11
437 1 -0.021853125 -0.00125 -0.019490625 0.123928365601
438 1 -0.021853125 -0.00125 -0.018309375 0.186171540908
439 1 -0.021853125 -0.00125 -0.017128125 0.14929428164
440 1 -0.021853125 -0.00125 -0.015946875 0.186171540908
441 1 -0.021853125 -0.00125 -0.014765625 0.186171540908
442 1 -0.021853125 -0.00125 -0.013584375 0.407146700243
443 1 -0.021853125 -0.00125 -0.012403125 0.775530217004
444 1 -0.021853125 -0.00125 -0.011221875 0.459722771872
445 1 -0.021853125 -0.00125 -0.010040625 0.419449528188
446 1 -0.021853125 -0.00125 -0.008859375 0.252716464147
447 1 -0.021853125 -0.00125 -0.007678125 0.0778403180889
448 1 -0.021853125 -0.00125 -0.006496875 0.095575355231
449 1 -0.021853125 -0.00125 -0.005315625 0.569364093285
450 1 -0.021853125 -0.00125 -0.004134375 0.85070571836
451 1 -0.021853125 -0.00125 -0.002953125 0.609625938955
452 1 -0.021853125 -0.00125 -0.001771875 0.246164611148
453 1 -0.021853125 -0.00125 -0.000590625 0.10717975697
454 1 -0.021853125 -0.00125 0.000590625 0.383667992273
455 1 -0.021853125 -0.00125 0.001771875 0.540276713188
456 1 -0.021853125 -0.00125 0.002953125 0.64983617228
457 1 -0.021853125 -0.00125 0.004134375 0.975623214542
458 1 -0.021853125 -0.00125 0.005315625 0.989278567215
459 1 -0.021853125 -0.00125 0.006496875 0.947033736042
460 1 -0.021853125 -0.00125 0.007678125 0.856667573517
461 1 -0.021853125 -0.00125 0.008859375 0.78627876631
462 1 -0.021853125 -0.00125 0.010040625 0.470910937833
463 1 -0.021853125 -0.00125 0.011221875 0.51118821003
464 1 -0.021853125 -0.00125 0.012403125 0.562651743654
465 1 -0.021853125 -0.00125 0.013584375 0.241806908695
466 1 -0.021853125 -0.00125 0.014765625 0.955667729205
467 1 -0.021853125 -0.00125 0.015946875 0.860608573582
468 1 -0.021853125 -0.00125 0.017128125 0.30342334246
469 1 -0.021853125 -0.00125 0.018309375 0.091233852548
470 1 -0.021853125 -0.00125 0.019490625 0.0698876476892
471 1 -0.021853125 -0.00125 0.020671875 0.620802845142
472 1 -0.021853125 -0.00125 0.021853125 0.678803556406
473 1 -0.021853125 -0.00125 0.023034375 0.383667992273
474 1 -0.021853125 -0.00125 0.024215625 0.196692716986
475 1 -0.021853125 -0.00125 0.025396875 0.292343226566
476 1 -0.021853125 -0.00125 0.026578125 0.744000752515
477 1 -0.021853125 -0.00125 0.027759375 0.689656504889
478 1 -0.021853125 -0.00125 0.028940625 0.494049832342
479 1 -0.020671875 -0.00125 -0.030121875 2.52587523623e-07
480 1 -0.020671875 -0.00125 -0.028940625 0.000245540111831
481 1 -0.020671875 -0.00125 -0.027759375 0.159358746116
482 1 -0.020671875 -0.00125 -0.026578125 0.0122342732579
483 1 -0.020671875 -0.00125 -0.025396875 0.0
484 1 -0.020671875 -0.00125 -0.024215625 0.0
485 1 -0.020671875 -0.00125 -0.023034375 0.0
486 1 -0.020671875 -0.00125 -0.021853125 0.0
487 1 -0.020671875 -0.00125 -0.020671875 0.0
488 1 -0.020671875 -0.00125 -0.019490625 0.0475687660223
489 1 -0.020671875 -0.00125 -0.018309375 0.00668182974929
490 1 -0.020671875 -0.00125 -0.017128125 4.52227625942e-06
491 1 -0.020671875 -0.00125 -0.015946875 0.0
492 1 -0.020671875 -0.00125 -0.014765625 1.74019667629e-11
493 1 -0.020671875 -0.00125 -0.013584375 0.00118682874801
494 1 -0.020671875 -0.00125 -0.012403125 0.39037452881
495 1 -0.020671875 -0.00125 -0.011221875 0.769047847884
496 1 -0.020671875 -0.00125 -0.010040625 0.580549910179
497 1 -0.020671875 -0.00125 -0.008859375 0.175758893257
498 1 -0.020671875 -0.00125 -0.007678125 0.0509111013046
499 1 -0.020671875 -0.00125 -0.006496875 0.0207856853608
500 1 -0.020671875 -0.00125 -0.005315625 0.0999860491522
501 1 -0.020671875 -0.00125 -0.004134375 0.620802377555
502 1 -0.020671875 -0.00125 -0.002953125 0.678804021823
503 1 -0.020671875 -0.00125 -0.001771875 0.511187741896
504 1 -0.020671875 -0.00125 -0.000590625 0.341241773452
505 1 -0.020671875 -0.00125 0.000590625 0.350163267536
506 1 -0.020671875 -0.00125 0.001771875 0.638674944179
507 1 -0.020671875 -0.00125 0.002953125 0.775529765761
508 1 -0.020671875 -0.00125 0.004134375 0.99331812968
509 1 -0.020671875 -0.00125 0.005315625 0.999999962954
510 1 -0.020671875 -0.00125 0.006496875 1.0
511 1 -0.020671875 -0.00125 0.007678125 0.975623214542
512 1 -0.020671875 -0.00125 0.008859375 0.955667729205
513 1 -0.020671875 -0.00125 0.010040625 0.747283490098
514 1 -0.020671875 -0.00125 0.011221875 0.78627876631
515 1 -0.020671875 -0.00125 0.012403125 0.729730869921
516 1 -0.020671875 -0.00125 0.013584375 0.71870955287
517 1 -0.020671875 -0.00125 0.014765625 0.660987899129
518 1 -0.020671875 -0.00125 0.015946875 0.59844434493
519 1 -0.020671875 -0.00125 0.017128125 0.0698876476892
520 1 -0.020671875 -0.00125 0.018309375 0.0509111013046
521 1 -0.020671875 -0.00125 0.019490625 0.326759914968
522 1 -0.020671875 -0.00125 0.020671875 0.78627876631
523 1 -0.020671875 -0.00125 0.021853125 0.511187741896
524 1 -0.020671875 -0.00125 0.023034375 0.230952650313
525 1 -0.020671875 -0.00125 0.024215625 0.620802377555
526 1 -0.020671875 -0.00125 0.025396875 0.667673396678
527 1 -0.020671875 -0.00125 0.026578125 0.863545048631
528 1 -0.020671875 -0.00125 0.027759375 0.850705634787
529 1 -0.020671875 -0.00125 0.028940625 0.379394290328
530 1 -0.020671875 -0.00125 0.030121875 0.0459959987098
531 1 -0.019490625 -0.00125 -0.031303125 0.0
532 1 -0.019490625 -0.00125 -0.030121875 0.0
533 1 -0.019490625 -0.00125 -0.028940625 1.28754471296e-08
534 1 -0.019490625 -0.00125 -0.027759375 0.000375784453599
535 1 -0.019490625 -0.00125 -0.026578125 0.0947013434106
536 1 -0.019490625 -0.00125 -0.025396875 7.02309649834e-08
537 1 -0.019490625 -0.00125 -0.024215625 0.0
538 1 -0.019490625 -0.00125 -0.023034375 0.0
539 1 -0.019490625 -0.00125 -0.021853125 0.0
540 1 -0.019490625 -0.00125 -0.020671875 0.0
541 1 -0.019490625 -0.00125 -0.019490625 0.130149953902
542 1 -0.019490625 -0.00125 -0.018309375 0.0175125972543
543 1 -0.019490625 -0.00125 -0.017128125 0.000535660654302
544 1 -0.019490625 -0.00125 -0.015946875 0.0