ITEM: TIMESTEP
0
ITEM: NUMBER OF ATOMS
3080
ITEM: BOX BOUNDS ss ss ss
-3.7007399999999996e-02 3.7007399999999996e-02
-2.0002499999999999e-03 2.5000000000000004e-07
-3.7007399999999996e-02 3.7007399999999996e-02
ITEM: ATOMS id type x y z c_1
0 1 -0.037209375 -0.00125 -0.000590625 8.19548828049e-05
1 1 -0.036028125 -0.00125 -0.007678125 0.00920066229086
2 1 -0.036028125 -0.00125 -0.006496875 0.0
3 1 -0.036028125 -0.00125 -0.005315625 0.0593479449997
4 1 -0.036028125 -0.00125 -0.004134375 0.399318936857
5 1 -0.036028125 -0.00125 -0.002953125 0.00207820714601
6 1 -0.036028125 -0.00125 -0.001771875 0.0
7 1 -0.036028125 -0.00125 -0.000590625 0.0
8 1 -0.036028125 -0.00125 0.000590625 8.19548828049e-05
9 1 -0.036028125 -0.00125 0.001771875 3.70458005324e-08
10 1 -0.036028125 -0.00125 0.002953125 0.226627684957
11 1 -0.036028125 -0.00125 0.004134375 0.226627684957
12 1 -0.036028125 -0.00125 0.005315625 3.70458005324e-08
13 1 -0.036028125 -0.00125 0.006496875 0.0
14 1 -0.036028125 -0.00125 0.007678125 0.00920066229086
15 1 -0.034846875 -0.00125 -0.011221875 0.0378159779673
16 1 -0.034846875 -0.00125 -0.010040625 0.135479596443
17 1 -0.034846875 -0.00125 -0.008859375 0.574797210729
18 1 -0.034846875 -0.00125 -0.007678125 0.112788508618
19 1 -0.034846875 -0.00125 -0.006496875 1.28752206004e-08
20 1 -0.034846875 -0.00125 -0.005315625 0.203051971158
21 1 -0.034846875 -0.00125 -0.004134375 0.241806908695
22 1 -0.034846875 -0.00125 -0.002953125 0.0138696939255
23 1 -0.034846875 -0.00125 -0.001771875 4.52227625942e-06
24 1 -0.034846875 -0.00125 -0.000590625 0.0
25 1 -0.034846875 -0.00125 0.000590625 1.74019667629e-11
26 1 -0.034846875 -0.00125 0.001771875 0.00474644221021
27 1 -0.034846875 -0.00125 0.002953125 0.332327162581
28 1 -0.034846875 -0.00125 0.004134375 0.0698876476892
29 1 -0.034846875 -0.00125 0.005315625 1.22156214432e-15
30 1 -0.034846875 -0.00125 0.006496875 0.0
31 1 -0.034846875 -0.00125 0.007678125 0.0787502203907
32 1 -0.034846875 -0.00125 0.008859375 0.552359499936
33 1 -0.034846875 -0.00125 0.010040625 0.226627730138
34 1 -0.034846875 -0.00125 0.011221875 0.5
35 1 -0.033665625 -0.00125 -0.013584375 0.0
36 1 -0.033665625 -0.00125 -0.012403125 0.182529172436
37 1 -0.033665625 -0.00125 -0.011221875 0.410173540619
38 1 -0.033665625 -0.00125 -0.010040625 0.511187741896
39 1 -0.033665625 -0.00125 -0.008859375 0.569364093285
40 1 -0.033665625 -0.00125 -0.007678125 0.21372123369
41 1 -0.033665625 -0.00125 -0.006496875 0.00734856622555
42 1 -0.033665625 -0.00125 -0.005315625 0.303423296049
43 1 -0.033665625 -0.00125 -0.004134375 0.390374014268
44 1 -0.033665625 -0.00125 -0.002953125 0.321195978177
45 1 -0.033665625 -0.00125 -0.001771875 0.123928325831
46 1 -0.033665625 -0.00125 -0.000590625 0.0098718633607
47 1 -0.033665625 -0.00125 0.000590625 0.0243767756543
48 1 -0.033665625 -0.00125 0.001771875 0.114532075754
49 1 -0.033665625 -0.00125 0.002953125 0.123928365601
50 1 -0.033665625 -0.00125 0.004134375 0.000891017573599
51 1 -0.033665625 -0.00125 0.005315625 4.52220221462e-06
52 1 -0.033665625 -0.00125 0.006496875 4.5305787517e-05
53 1 -0.033665625 -0.00125 0.007678125 0.286813049125
54 1 -0.033665625 -0.00125 0.008859375 0.643587289537
55 1 -0.033665625 -0.00125 0.010040625 0.618567215103
56 1 -0.033665625 -0.00125 0.011221875 0.583747880841
57 1 -0.033665625 -0.00125 0.012403125 0.632868378852
58 1 -0.033665625 -0.00125 0.013584375 0.457325543592
59 1 -0.032484375 -0.00125 -0.018309375 0.0
60 1 -0.032484375 -0.00125 -0.017128125 0.0
61 1 -0.032484375 -0.00125 -0.015946875 0.0
62 1 -0.032484375 -0.00125 -0.014765625 0.0
63 1 -0.032484375 -0.00125 -0.013584375 0.00238620103558
64 1 -0.032484375 -0.00125 -0.012403125 0.154307352577
65 1 -0.032484375 -0.00125 -0.011221875 0.312303674233
66 1 -0.032484375 -0.00125 -0.010040625 0.229870432812
67 1 -0.032484375 -0.00125 -0.008859375 0.292342995029
68 1 -0.032484375 -0.00125 -0.007678125 0.361324822233
69 1 -0.032484375 -0.00125 -0.006496875 0.241262557655
70 1 -0.032484375 -0.00125 -0.005315625 0.508950343408
71 1 -0.032484375 -0.00125 -0.004134375 0.525732553122
72 1 -0.032484375 -0.00125 -0.002953125 0.372493358291
73 1 -0.032484375 -0.00125 -0.001771875 0.416094119369
74 1 -0.032484375 -0.00125 -0.000590625 0.215328936056
75 1 -0.032484375 -0.00125 0.000590625 0.370259144319
76 1 -0.032484375 -0.00125 0.001771875 0.439585669793
77 1 -0.032484375 -0.00125 0.002953125 0.301204940212
78 1 -0.032484375 -0.00125 0.004134375 0.0335972786663
79 1 -0.032484375 -0.00125 0.005315625 0.00855155891876
80 1 -0.032484375 -0.00125 0.006496875 0.14829653317
81 1 -0.032484375 -0.00125 0.007678125 0.51118821003
82 1 -0.032484375 -0.00125 0.008859375 0.315636728068
83 1 -0.032484375 -0.00125 0.010040625 0.175758893257
84 1 -0.032484375 -0.00125 0.011221875 0.212116107727
85 1 -0.032484375 -0.00125 0.012403125 0.435557988834
86 1 -0.032484375 -0.00125 0.013584375 0.410436118423
87 1 -0.032484375 -0.00125 0.014765625 0.283908791429
88 1 -0.032484375 -0.00125 0.015946875 0.0508348850975
89 1 -0.032484375 -0.00125 0.017128125 0.0131631897991
90 1 -0.032484375 -0.00125 0.018309375 0.0418564289367
91 1 -0.031303125 -0.00125 -0.019490625 0.0
92 1 -0.031303125 -0.00125 -0.018309375 0.0
93 1 -0.031303125 -0.00125 -0.017128125 0.0
94 1 -0.031303125 -0.00125 -0.015946875 0.000126658700522
95 1 -0.031303125 -0.00125 -0.014765625 0.000126658700522
96 1 -0.031303125 -0.00125 -0.013584375 0.066041103006
97 1 -0.031303125 -0.00125 -0.012403125 0.224469737872
98 1 -0.031303125 -0.00125 -0.011221875 0.21372123369
99 1 -0.031303125 -0.00125 -0.010040625 0.0698876476892
100 1 -0.031303125 -0.00125 -0.008859375 0.159358746116
101 1 -0.031303125 -0.00125 -0.007678125 0.159358746116
102 1 -0.031303125 -0.00125 -0.006496875 0.323420907218
103 1 -0.031303125 -0.00125 -0.005315625 0.470910937833
104 1 -0.031303125 -0.00125 -0.004134375 0.609625938955
105 1 -0.031303125 -0.00125 -0.002953125 0.453010895051
106 1 -0.031303125 -0.00125 -0.001771875 0.332327069371
107 1 -0.031303125 -0.00125 -0.000590625 0.258190177523
108 1 -0.031303125 -0.00125 0.000590625 0.3791971081
109 1 -0.031303125 -0.00125 0.001771875 0.390374014268
110 1 -0.031303125 -0.00125 0.002953125 0.758192544835
111 1 -0.031303125 -0.00125 0.004134375 0.517900778604
112 1 -0.031303125 -0.00125 0.005315625 0.390374014268
113 1 -0.031303125 -0.00125 0.006496875 0.39037452881
114 1 -0.031303125 -0.00125 0.007678125 0.540276619563
115 1 -0.031303125 -0.00125 0.008859375 0.159358746116
116 1 -0.031303125 -0.00125 0.010040625 0.0443323240644
117 1 -0.031303125 -0.00125 0.011221875 0.0550579642476
118 1 -0.031303125 -0.00125 0.012403125 0.522376508072
119 1 -0.031303125 -0.00125 0.013584375 0.60962547119
120 1 -0.031303125 -0.00125 0.014765625 0.263674497482
121 1 -0.031303125 -0.00125 0.015946875 0.186171540908
122 1 -0.031303125 -0.00125 0.017128125 0.252716967449
123 1 -0.031303125 -0.00125 0.018309375 0.139045586722
124 1 -0.031303125 -0.00125 0.019490625 0.473820099317
125 1 -0.030121875 -0.00125 -0.020671875 0.0
126 1 -0.030121875 -0.00125 -0.019490625 1.74014005978e-11
127 1 -0.030121875 -0.00125 -0.018309375 0.00154812961495
128 1 -0.030121875 -0.00125 -0.017128125 0.0443322841124
129 1 -0.030121875 -0.00125 -0.015946875 0.0293069007767
130 1 -0.030121875 -0.00125 -0.014765625 0.0293069007767
131 1 -0.030121875 -0.00125 -0.013584375 0.0122342469149
132 1 -0.030121875 -0.00125 -0.012403125 0.241806863156
133 1 -0.030121875 -0.00125 -0.011221875 0.235287296038
134 1 -0.030121875 -0.00125 -0.010040625 0.0999860491522
135 1 -0.030121875 -0.00125 -0.008859375 0.0293069007767
136 1 -0.030121875 -0.00125 -0.007678125 0.0999860491522
137 1 -0.030121875 -0.00125 -0.006496875 0.11175699854
138 1 -0.030121875 -0.00125 -0.005315625 0.196692230435
139 1 -0.030121875 -0.00125 -0.004134375 0.517900216843
140 1 -0.030121875 -0.00125 -0.002953125 0.753834841302
141 1 -0.030121875 -0.00125 -0.001771875 0.263674497482
142 1 -0.030121875 -0.00125 -0.000590625 0.350721315597
143 1 -0.030121875 -0.00125 0.000590625 0.508055646142
144 1 -0.030121875 -0.00125 0.001771875 0.361325055821
145 1 -0.030121875 -0.00125 0.002953125 0.281290216208
146 1 -0.030121875 -0.00125 0.004134375 0.631974357766
147 1 -0.030121875 -0.00125 0.005315625 0.5
148 1 -0.030121875 -0.00125 0.006496875 0.525732553122
149 1 -0.030121875 -0.00125 0.007678125 0.638674944179
150 1 -0.030121875 -0.00125 0.008859375 0.430635859907
151 1 -0.030121875 -0.00125 0.010040625 0.448535864695
152 1 -0.030121875 -0.00125 0.011221875 0.430635345024
153 1 -0.030121875 -0.00125 0.012403125 0.627506641709
154 1 -0.030121875 -0.00125 0.013584375 0.961812611141
155 1 -0.030121875 -0.00125 0.014765625 0.419449528188
156 1 -0.030121875 -0.00125 0.015946875 0.672127055792
157 1 -0.030121875 -0.00125 0.017128125 0.511187741896
158 1 -0.030121875 -0.00125 0.018309375 0.21372123369
159 1 -0.030121875 -0.00125 0.019490625 0.631317812438
160 1 -0.030121875 -0.00125 0.020671875 0.298081407311
161 1 -0.028940625 -0.00125 -0.021853125 0.00466864259094
162 1 -0.028940625 -0.00125 -0.020671875 1.61610918776e-06
163 1 -0.028940625 -0.00125 -0.019490625 1.28752206004e-08
164 1 -0.028940625 -0.00125 -0.018309375 0.196692716986
165 1 -0.028940625 -0.00125 -0.017128125 0.292342717184
166 1 -0.028940625 -0.00125 -0.015946875 0.0443323240644
167 1 -0.028940625 -0.00125 -0.014765625 0.00154813293271
168 1 -0.028940625 -0.00125 -0.013584375 0.000535662176186
169 1 -0.028940625 -0.00125 -0.012403125 0.091233852548
170 1 -0.028940625 -0.00125 -0.011221875 0.303423296049
171 1 -0.028940625 -0.00125 -0.010040625 0.133535038668
172 1 -0.028940625 -0.00125 -0.008859375 0.0443322841124
173 1 -0.028940625 -0.00125 -0.007678125 0.0509111013046
174 1 -0.028940625 -0.00125 -0.006496875 0.0698876476892
175 1 -0.028940625 -0.00125 -0.005315625 0.0698876476892
176 1 -0.028940625 -0.00125 -0.004134375 0.412738808647
177 1 -0.028940625 -0.00125 -0.002953125 0.930112352311
178 1 -0.028940625 -0.00125 -0.001771875 0.627506641709
179 1 -0.028940625 -0.00125 -0.000590625 0.379197622445
180 1 -0.028940625 -0.00125 0.000590625 0.186171540908
181 1 -0.028940625 -0.00125 0.001771875 0.0175125891118
182 1 -0.028940625 -0.00125 0.002953125 0.0509111013046
183 1 -0.028940625 -0.00125 0.004134375 0.21372123369
184 1 -0.028940625 -0.00125 0.005315625 0.186171540908
185 1 -0.028940625 -0.00125 0.006496875 0.341241493571
186 1 -0.028940625 -0.00125 0.007678125 0.504475733493
187 1 -0.028940625 -0.00125 0.008859375 0.585024506114
188 1 -0.028940625 -0.00125 0.010040625 0.493286914719
189 1 -0.028940625 -0.00125 0.011221875 0.453010380117
190 1 -0.028940625 -0.00125 0.012403125 0.747283490098
191 1 -0.028940625 -0.00125 0.013584375 0.805419845998
192 1 -0.028940625 -0.00125 0.014765625 0.824241106743
193 1 -0.028940625 -0.00125 0.015946875 0.729730869921
194 1 -0.028940625 -0.00125 0.017128125 0.419449528188
195 1 -0.028940625 -0.00125 0.018309375 0.412738808647
196 1 -0.028940625 -0.00125 0.019490625 0.60962547119
197 1 -0.028940625 -0.00125 0.020671875 0.335865614861
198 1 -0.028940625 -0.00125 0.021853125 0.327620245168
199 1 -0.027759375 -0.00125 -0.024215625 0.0
200 1 -0.027759375 -0.00125 -0.023034375 0.0075399670332
201 1 -0.027759375 -0.00125 -0.021853125 0.0883131183637
202 1 -0.027759375 -0.00125 -0.020671875 0.00474644221021
203 1 -0.027759375 -0.00125 -0.019490625 2.79378975481e-22
204 1 -0.027759375 -0.00125 -0.018309375 0.0381872278205
205 1 -0.027759375 -0.00125 -0.017128125 0.310081568404
206 1 -0.027759375 -0.00125 -0.015946875 0.252716464147
207 1 -0.027759375 -0.00125 -0.014765625 6.01557630165e-07
208 1 -0.027759375 -0.00125 -0.013584375 0.000535660654302
209 1 -0.027759375 -0.00125 -0.012403125 0.0243767952624
210 1 -0.027759375 -0.00125 -0.011221875 0.21372123369
211 1 -0.027759375 -0.00125 -0.010040625 0.339012100871
212 1 -0.027759375 -0.00125 -0.008859375 0.0999860491522
213 1 -0.027759375 -0.00125 -0.007678125 0.0443322841124
214 1 -0.027759375 -0.00125 -0.006496875 0.0698876476892
215 1 -0.027759375 -0.00125 -0.005315625 0.0509111013046
216 1 -0.027759375 -0.00125 -0.004134375 0.196692230435
217 1 -0.027759375 -0.00125 -0.002953125 0.678804021823
218 1 -0.027759375 -0.00125 -0.001771875 0.99998814259
219 1 -0.027759375 -0.00125 -0.000590625 0.598444906404
220 1 -0.027759375 -0.00125 0.000590625 0.128706608072
221 1 -0.027759375 -0.00125 0.001771875 0.0622852495443
222 1 -0.027759375 -0.00125 0.002953125 0.139391385346
223 1 -0.027759375 -0.00125 0.004134375 0.21372123369
224 1 -0.027759375 -0.00125 0.005315625 0.091233852548
225 1 -0.027759375 -0.00125 0.006496875 0.0600766950136
226 1 -0.027759375 -0.00125 0.007678125 0.0347170407724
227 1 -0.027759375 -0.00125 0.008859375 0.133535038668
228 1 -0.027759375 -0.00125 0.010040625 0.0175125891118
229 1 -0.027759375 -0.00125 0.011221875 0.159358746116
230 1 -0.027759375 -0.00125 0.012403125 0.70101210735
231 1 -0.027759375 -0.00125 0.013584375 0.913035403338
232 1 -0.027759375 -0.00125 0.014765625 0.860608573582
233 1 -0.027759375 -0.00125 0.015946875 0.470910937833
234 1 -0.027759375 -0.00125 0.017128125 0.372493358291
235 1 -0.027759375 -0.00125 0.018309375 0.343471344865
236 1 -0.027759375 -0.00125 0.019490625 0.26916911349
237 1 -0.027759375 -0.00125 0.020671875 0.707657282816
238 1 -0.027759375 -0.00125 0.021853125 0.292538509234
239 1 -0.027759375 -0.00125 0.023034375 0.217950860068
240 1 -0.027759375 -0.00125 0.024215625 0.128734105234
241 1 -0.026578125 -0.00125 -0.026578125 0.0
242 1 -0.026578125 -0.00125 -0.025396875 0.0
243 1 -0.026578125 -0.00125 -0.024215625 0.0
244 1 -0.026578125 -0.00125 -0.023034375 2.79378975481e-22
245 1 -0.026578125 -0.00125 -0.021853125 1.28752206004e-08
246 1 -0.026578125 -0.00125 -0.020671875 7.02293809892e-08
247 1 -0.026578125 -0.00125 -0.019490625 7.49709589486e-44
248 1 -0.026578125 -0.00125 -0.018309375 0.00284458163855
249 1 -0.026578125 -0.00125 -0.017128125 0.375845250167
250 1 -0.026578125 -0.00125 -0.015946875 0.520138643777
251 1 -0.026578125 -0.00125 -0.014765625 0.366908099064
252 1 -0.026578125 -0.00125 -0.013584375 0.295110648741
253 1 -0.026578125 -0.00125 -0.012403125 0.330099489909
254 1 -0.026578125 -0.00125 -0.011221875 0.488811743157
255 1 -0.026578125 -0.00125 -0.010040625 0.747283307079
256 1 -0.026578125 -0.00125 -0.008859375 0.574956910914
257 1 -0.026578125 -0.00125 -0.007678125 0.306751446698
258 1 -0.026578125 -0.00125 -0.006496875 0.105818637834
259 1 -0.026578125 -0.00125 -0.005315625 0.0393805017402
260 1 -0.026578125 -0.00125 -0.004134375 0.0600766491627
261 1 -0.026578125 -0.00125 -0.002953125 0.574957191747
262 1 -0.026578125 -0.00125 -0.001771875 0.943527652013
263 1 -0.026578125 -0.00125 -0.000590625 0.933005712983
264 1 -0.026578125 -0.00125 0.000590625 0.402673890147
265 1 -0.026578125 -0.00125 0.001771875 0.368025174883
266 1 -0.026578125 -0.00125 0.002953125 0.28129044713
267 1 -0.026578125 -0.00125 0.004134375 0.266970274945
268 1 -0.026578125 -0.00125 0.005315625 0.212650846564
269 1 -0.026578125 -0.00125 0.006496875 0.00817848148146
270 1 -0.026578125 -0.00125 0.007678125 3.07877004318e-05
271 1 -0.026578125 -0.00125 0.008859375 1.5838087899e-05
272 1 -0.026578125 -0.00125 0.010040625 0.009871880681
273 1 -0.026578125 -0.00125 0.011221875 0.4328732313
274 1 -0.026578125 -0.00125 0.012403125 0.805420022599
275 1 -0.026578125 -0.00125 0.013584375 0.899569366673
276 1 -0.026578125 -0.00125 0.014765625 0.57160138172
277 1 -0.026578125 -0.00125 0.015946875 0.349048037003
278 1 -0.026578125 -0.00125 0.017128125 0.26916911349
279 1 -0.026578125 -0.00125 0.018309375 0.450772858521
280 1 -0.026578125 -0.00125 0.019490625 0.630858105473
281 1 -0.026578125 -0.00125 0.020671875 0.40155560828
282 1 -0.026578125 -0.00125 0.021853125 0.266970044988
283 1 -0.026578125 -0.00125 0.023034375 0.5
284 1 -0.026578125 -0.00125 0.024215625 0.372625086954
285 1 -0.026578125 -0.00125 0.025396875 0.103424430127
286 1 -0.026578125 -0.00125 0.026578125 0.298081407311
287 1 -0.025396875 -0.00125 -0.026578125 0.0
288 1 -0.025396875 -0.00125 -0.025396875 0.0
289 1 -0.025396875 -0.00125 -0.024215625 0.0
290 1 -0.025396875 -0.00125 -0.023034375 0.0
291 1 -0.025396875 -0.00125 -0.021853125 0.0
292 1 -0.025396875 -0.00125 -0.020671875 0.0
293 1 -0.025396875 -0.00125 -0.019490625 0.0
294 1 -0.025396875 -0.00125 -0.018309375 0.00668184101894
295 1 -0.025396875 -0.00125 -0.017128125 0.372493358291
296 1 -0.025396875 -0.00125 -0.015946875 0.196692230435
297 1 -0.025396875 -0.00125 -0.014765625 0.0443322841124
298 1 -0.025396875 -0.00125 -0.013584375 0.00284458672872
299 1 -0.025396875 -0.00125 -0.012403125 0.109003711423
300 1 -0.025396875 -0.00125 -0.011221875 0.517900778604
301 1 -0.025396875 -0.00125 -0.010040625 0.758193091305
302 1 -0.025396875 -0.00125 -0.008859375 0.441823107051
303 1 -0.025396875 -0.00125 -0.007678125 0.620802845142
304 1 -0.025396875 -0.00125 -0.006496875 0.724224680087
305 1 -0.025396875 -0.00125 -0.005315625 0.281290216208
306 1 -0.025396875 -0.00125 -0.004134375 0.123928325831
307 1 -0.025396875 -0.00125 -0.002953125 0.540276619563
308 1 -0.025396875 -0.00125 -0.001771875 0.955667729205
309 1 -0.025396875 -0.00125 -0.000590625 0.987448446271
310 1 -0.025396875 -0.00125 0.000590625 0.939191010201
311 1 -0.025396875 -0.00125 0.001771875 0.678803556406
312 1 -0.025396875 -0.00125 0.002953125 0.620802377555
313 1 -0.025396875 -0.00125 0.004134375 0.758193091305
314 1 -0.025396875 -0.00125 0.005315625 0.5
315 1 -0.025396875 -0.00125 0.006496875 0.123928763306
316 1 -0.025396875 -0.00125 0.007678125 0.105365860212
317 1 -0.025396875 -0.00125 0.008859375 0.263675002831
318 1 -0.025396875 -0.00125 0.010040625 0.361325055821
319 1 -0.025396875 -0.00125 0.011221875 0.834531209026
320 1 -0.025396875 -0.00125 0.012403125 0.930112352311
321 1 -0.025396875 -0.00125 0.013584375 0.981297339198
322 1 -0.025396875 -0.00125 0.014765625 0.591734291704
323 1 -0.025396875 -0.00125 0.015946875 0.321195978177
324 1 -0.025396875 -0.00125 0.017128125 0.40155560828
325 1 -0.025396875 -0.00125 0.018309375 0.78627876631
326 1 -0.025396875 -0.00125 0.019490625 0.589498084866
327 1 -0.025396875 -0.00125 0.020671875 0.361324541927
328 1 -0.025396875 -0.00125 0.021853125 0.252716464147
329 1 -0.025396875 -0.00125 0.023034375 0.569364093285
330 1 -0.025396875 -0.00125 0.024215625 0.441823107051
331 1 -0.025396875 -0.00125 0.025396875 0.511187741896
332 1 -0.025396875 -0.00125 0.026578125 0.472058423312
333 1 -0.024215625 -0.00125 -0.027759375 0.0
334 1 -0.024215625 -0.00125 -0.026578125 0.0
335 1 -0.024215625 -0.00125 -0.025396875 0.0
336 1 -0.024215625 -0.00125 -0.024215625 0.0
337 1 -0.024215625 -0.00125 -0.023034375 0.0
338 1 -0.024215625 -0.00125 -0.021853125 0.0
339 1 -0.024215625 -0.00125 -0.020671875 0.0
340 1 -0.024215625 -0.00125 -0.019490625 7.69885813891e-05
341 1 -0.024215625 -0.00125 -0.018309375 0.133535038668
342 1 -0.024215625 -0.00125 -0.017128125 0.114532075754
343 1 -0.024215625 -0.00125 -0.015946875 0.0107214510125
344 1 -0.024215625 -0.00125 -0.014765625 4.52220221462e-06
345 1 -0.024215625 -0.00125 -0.013584375 0.00154813127383
346 1 -0.024215625 -0.00125 -0.012403125 0.091233852548
347 1 -0.024215625 -0.00125 -0.011221875 0.412738808647
348 1 -0.024215625 -0.00125 -0.010040625 0.5
349 1 -0.024215625 -0.00125 -0.008859375 0.834531294591
350 1 -0.024215625 -0.00125 -0.007678125 0.975623214542
351 1 -0.024215625 -0.00125 -0.006496875 0.75819336454
352 1 -0.024215625 -0.00125 -0.005315625 0.807528333025
353 1 -0.024215625 -0.00125 -0.004134375 0.569364654976
354 1 -0.024215625 -0.00125 -0.002953125 0.591734853249
355 1 -0.024215625 -0.00125 -0.001771875 0.769047847884
356 1 -0.024215625 -0.00125 -0.000590625 0.984151610256
357 1 -0.024215625 -0.00125 0.000590625 0.998908456879
358 1 -0.024215625 -0.00125 0.001771875 0.834531294591
359 1 -0.024215625 -0.00125 0.002953125 0.78627876631
360 1 -0.024215625 -0.00125 0.004134375 0.920528974079
361 1 -0.024215625 -0.00125 0.005315625 0.70101210735
362 1 -0.024215625 -0.00125 0.006496875 0.326759356069
363 1 -0.024215625 -0.00125 0.007678125 0.775530217004
364 1 -0.024215625 -0.00125 0.008859375 0.999108981871
365 1 -0.024215625 -0.00125 0.010040625 0.986130306074
366 1 -0.024215625 -0.00125 0.011221875 0.99331812968
367 1 -0.024215625 -0.00125 0.012403125 0.99331812968
368 1 -0.024215625 -0.00125 0.013584375 0.888242808678
369 1 -0.024215625 -0.00125 0.014765625 0.69657661113
370 1 -0.024215625 -0.00125 0.015946875 0.796948028842
371 1 -0.024215625 -0.00125 0.017128125 0.930112352311
372 1 -0.024215625 -0.00125 0.018309375 0.85070571836
373 1 -0.024215625 -0.00125 0.019490625 0.560414330207
374 1 -0.024215625 -0.00125 0.020671875 0.649836732464
375 1 -0.024215625 -0.00125 0.021853125 0.885467904821
376 1 -0.024215625 -0.00125 0.023034375 0.736325502518
377 1 -0.024215625 -0.00125 0.024215625 0.390374014268
378 1 -0.024215625 -0.00125 0.025396875 0.224469737872
379 1 -0.024215625 -0.00125 0.026578125 0.103588798408
380 1 -0.024215625 -0.00125 0.027759375 0.000455413315469
381 1 -0.023034375 -0.00125 -0.027759375 0.0
382 1 -0.023034375 -0.00125 -0.026578125 0.0
383 1 -0.023034375 -0.00125 -0.025396875 0.0
384 1 -0.023034375 -0.00125 -0.024215625 0.0
385 1 -0.023034375 -0.00125 -0.023034375 0.0
386 1 -0.023034375 -0.00125 -0.021853125 0.0
387 1 -0.023034375 -0.00125 -0.020671875 0.0
388 1 -0.023034375 -0.00125 -0.019490625 0.00987185758727
389 1 -0.023034375 -0.00125 -0.018309375 0.0622852495443
390 1 -0.023034375 -0.00125 -0.017128125 0.00668184101894
391 1 -0.023034375 -0.00125 -0.015946875 1.74019667629e-11
392 1 -0.023034375 -0.00125 -0.014765625 0.0
393 1 -0.023034375 -0.00125 -0.013584375 0.00393675578935
394 1 -0.023034375 -0.00125 -0.012403125 0.21372123369
395 1 -0.023034375 -0.00125 -0.011221875 0.186171540908
396 1 -0.023034375 -0.00125 -0.010040625 0.372492797347
397 1 -0.023034375 -0.00125 -0.008859375 0.196692230435
398 1 -0.023034375 -0.00125 -0.007678125 0.196692230435
399 1 -0.023034375 -0.00125 -0.006496875 0.283498095333
400 1 -0.023034375 -0.00125 -0.005315625 0.441823153862
401 1 -0.023034375 -0.00125 -0.004134375 0.850705216927
402 1 -0.023034375 -0.00125 -0.002953125 0.876071634399
403 1 -0.023034375 -0.00125 -0.001771875 0.707657282816
404 1 -0.023034375 -0.00125 -0.000590625 0.996138665439
405 1 -0.023034375 -0.00125 0.000590625 0.998514369019
406 1 -0.023034375 -0.00125 0.001771875 1.0
407 1 -0.023034375 -0.00125 0.002953125 0.99999547781
408 1 -0.023034375 -0.00125 0.004134375 0.860608573582
409 1 -0.023034375 -0.00125 0.005315625 0.620802377555
410 1 -0.023034375 -0.00125 0.006496875 0.947033678203
411 1 -0.023034375 -0.00125 0.007678125 0.999999999983
412 1 -0.023034375 -0.00125 0.008859375 0.999108981871
413 1 -0.023034375 -0.00125 0.010040625 0.999999398426
414 1 -0.023034375 -0.00125 0.011221875 0.967503592763
415 1 -0.023034375 -0.00125 0.012403125 0.937714781498
416 1 -0.023034375 -0.00125 0.013584375 0.990670477222
417 1 -0.023034375 -0.00125 0.014765625 0.949088912898
418 1 -0.023034375 -0.00125 0.015946875 0.986130306074
419 1 -0.023034375 -0.00125 0.017128125 0.944942006328
420 1 -0.023034375 -0.00125 0.018309375 0.967503592763
421 1 -0.023034375 -0.00125 0.019490625 0.921345948328
422 1 -0.023034375 -0.00125 0.020671875 0.638675411355
423 1 -0.023034375 -0.00125 0.021853125 0.540277181315
424 1 -0.023034375 -0.00125 0.023034375 0.31008152194
425 1 -0.023034375 -0.00125 0.024215625 0.0243767756543
426 1 -0.023034375 -0.00125 0.025396875 0.0175125891118
427 1 -0.023034375 -0.00125 0.026578125 0.205178839796
428 1 -0.023034375 -0.00125 0.027759375 0.283624760984
429 1 -0.021853125 -0.00125 -0.028940625 0.0
430 1 -0.021853125 -0.00125 -0.027759375 0.0
431 1 -0.021853125 -0.00125 -0.026578125 0.0
432 1 -0.021853125 -0.00125 -0.025396875 0.0
433 1 -0.021853125 -0.00125 -0.024215625 0.0
434 1 -0.021853125 -0.00125 -0.023034375 0.0
435 1 -0.021853125 -0.00125 -0.021853125 0.0
436 1 -0.021853125 -0.00125 -0.020671875 0.0
437 1 -0.021853125 -0.00125 -0.019490625 0.0107214449368
438 1 -0.021853125 -0.00125 -0.018309375 0.0
439 1 -0.021853125 -0.00125 -0.017128125 1.74019667629e-11
440 1 -0.021853125 -0.00125 -0.015946875 0.0
441 1 -0.021853125 -0.00125 -0.014765625 0.0
442 1 -0.021853125 -0.00125 -0.013584375 0.0827704654289
443 1 -0.021853125 -0.00125 -0.012403125 0.114532075754
444 1 -0.021853125 -0.00125 -0.011221875 0.0243767756543
445 1 -0.021853125 -0.00125 -0.010040625 0.00668184101894
446 1 -0.021853125 -0.00125 -0.008859375 0.00154812961495
447 1 -0.021853125 -0.00125 -0.007678125 0.000126658700522
448 1 -0.021853125 -0.00125 -0.006496875 0.0675688981462
449 1 -0.021853125 -0.00125 -0.005315625 0.159358746116
450 1 -0.021853125 -0.00125 -0.004134375 0.747283490098
451 1 -0.021853125 -0.00125 -0.002953125 0.996774052335
452 1 -0.021853125 -0.00125 -0.001771875 0.999533444412
453 1 -0.021853125 -0.00125 -0.000590625 0.994044990052
454 1 -0.021853125 -0.00125 0.000590625 0.999817794443
455 1 -0.021853125 -0.00125 0.001771875 1.0
456 1 -0.021853125 -0.00125 0.002953125 0.999999999983
457 1 -0.021853125 -0.00125 0.004134375 0.999999999983
458 1 -0.021853125 -0.00125 0.005315625 0.998451858773
459 1 -0.021853125 -0.00125 0.006496875 0.981297339198
460 1 -0.021853125 -0.00125 0.007678125 0.995253550586
461 1 -0.021853125 -0.00125 0.008859375 0.999999999983
462 1 -0.021853125 -0.00125 0.010040625 1.0
463 1 -0.021853125 -0.00125 0.011221875 0.999873340047
464 1 -0.021853125 -0.00125 0.012403125 0.999873340047
465 1 -0.021853125 -0.00125 0.013584375 0.99999992977
466 1 -0.021853125 -0.00125 0.014765625 0.999873340047
467 1 -0.021853125 -0.00125 0.015946875 0.99995573976
468 1 -0.021853125 -0.00125 0.017128125 0.944942006328
469 1 -0.021853125 -0.00125 0.018309375 0.343471904739
470 1 -0.021853125 -0.00125 0.019490625 0.32898640085
471 1 -0.021853125 -0.00125 0.020671875 0.383667992273
472 1 -0.021853125 -0.00125 0.021853125 0.558176892949
473 1 -0.021853125 -0.00125 0.023034375 0.263674497482
474 1 -0.021853125 -0.00125 0.024215625 0.00474645121499
475 1 -0.021853125 -0.00125 0.025396875 0.133535038668
476 1 -0.021853125 -0.00125 0.026578125 0.445178693485
477 1 -0.021853125 -0.00125 0.027759375 0.21978261552
478 1 -0.021853125 -0.00125 0.028940625 0.00466864259094
479 1 -0.020671875 -0.00125 -0.030121875 0.0
480 1 -0.020671875 -0.00125 -0.028940625 0.0
481 1 -0.020671875 -0.00125 -0.027759375 0.0
482 1 -0.020671875 -0.00125 -0.026578125 0.0
483 1 -0.020671875 -0.00125 -0.025396875 0.0
484 1 -0.020671875 -0.00125 -0.024215625 0.0
485 1 -0.020671875 -0.00125 -0.023034375 0.0
486 1 -0.020671875 -0.00125 -0.021853125 0.0
487 1 -0.020671875 -0.00125 -0.020671875 0.0
488 1 -0.020671875 -0.00125 -0.019490625 0.00284458163855
489 1 -0.020671875 -0.00125 -0.018309375 0.0
490 1 -0.020671875 -0.00125 -0.017128125 0.0
491 1 -0.020671875 -0.00125 -0.015946875 0.0
492 1 -0.020671875 -0.00125 -0.014765625 6.01557630165e-07
493 1 -0.020671875 -0.00125 -0.013584375 0.144321532226
494 1 -0.020671875 -0.00125 -0.012403125 0.196692716986
495 1 -0.020671875 -0.00125 -0.011221875 0.00322594350264
496 1 -0.020671875 -0.00125 -0.010040625 0.00474644221021
497 1 -0.020671875 -0.00125 -0.008859375 0.00154812961495
498 1 -0.020671875 -0.00125 -0.007678125 4.52220221462e-06
499 1 -0.020671875 -0.00125 -0.006496875 0.00566001226104
500 1 -0.020671875 -0.00125 -0.005315625 0.114532114604
501 1 -0.020671875 -0.00125 -0.004134375 0.580550471812
502 1 -0.020671875 -0.00125 -0.002953125 0.975623214542
503 1 -0.020671875 -0.00125 -0.001771875 0.999533444412
504 1 -0.020671875 -0.00125 -0.000590625 0.999983246579
505 1 -0.020671875 -0.00125 0.000590625 0.999999995189
506 1 -0.020671875 -0.00125 0.001771875 1.0
507 1 -0.020671875 -0.00125 0.002953125 1.0
508 1 -0.020671875 -0.00125 0.004134375 1.0
509 1 -0.020671875 -0.00125 0.005315625 1.0
510 1 -0.020671875 -0.00125 0.006496875 1.0
511 1 -0.020671875 -0.00125 0.007678125 0.999999999961
512 1 -0.020671875 -0.00125 0.008859375 1.0
513 1 -0.020671875 -0.00125 0.010040625 1.0
514 1 -0.020671875 -0.00125 0.011221875 1.0
515 1 -0.020671875 -0.00125 0.012403125 0.999700867874
516 1 -0.020671875 -0.00125 0.013584375 0.99999992977
517 1 -0.020671875 -0.00125 0.014765625 0.908766147452
518 1 -0.020671875 -0.00125 0.015946875 0.667673396678
519 1 -0.020671875 -0.00125 0.017128125 0.419450089821
520 1 -0.020671875 -0.00125 0.018309375 0.0912339065983
521 1 -0.020671875 -0.00125 0.019490625 0.0509112149294
522 1 -0.020671875 -0.00125 0.020671875 0.246165113069
523 1 -0.020671875 -0.00125 0.021853125 0.667672930629
524 1 -0.020671875 -0.00125 0.023034375 0.274673763196
525 1 -0.020671875 -0.00125 0.024215625 0.0175125891118
526 1 -0.020671875 -0.00125 0.025396875 0.274673256093
527 1 -0.020671875 -0.00125 0.026578125 0.551464650233
528 1 -0.020671875 -0.00125 0.027759375 0.0138696939255
529 1 -0.020671875 -0.00125 0.028940625 1.61610918776e-06
530 1 -0.020671875 -0.00125 0.030121875 0.0
531 1 -0.019490625 -0.00125 -0.031303125 0.0
532 1 -0.019490625 -0.00125 -0.030121875 0.0
533 1 -0.019490625 -0.00125 -0.028940625 0.0
534 1 -0.019490625 -0.00125 -0.027759375 0.0
535 1 -0.019490625 -0.00125 -0.026578125 0.0
536 1 -0.019490625 -0.00125 -0.025396875 0.0
537 1 -0.019490625 -0.00125 -0.024215625 2.79378975481e-22
538 1 -0.019490625 -0.00125 -0.023034375 3.14925560351e-13
539 1 -0.019490625 -0.00125 -0.021853125 1.28754471296e-08
540 1 -0.019490625 -0.00125 -0.020671875 1.28754471296e-08
541 1 -0.019490625 -0.00125 -0.019490625 0.000813959084656
542 1 -0.019490625 -0.00125 -0.018309375 0.000198680669426
543 1 -0.019490625 -0.00125 -0.017128125 7.02299466978e-08
544 1 -0.019490625 -0.00125 -0.015946875 0.000375785035587
545 1 -0.019490625 -0.00125 -0.014765625 0.10266433662
546 1 -0.019490625 -0.00125 -0.013584375 0.281290170023
547 1 -0.019490625 -0.00125 -0.012403125 0.0564721694534
548 1 -0.019490625 -0.00125 -0.011221875 0.0675691711268
549 1 -0.019490625 -0.00125 -0.010040625 0.000741931199387
550 1 -0.019490625 -0.00125 -0.008859375 0.000741932169772