ITEM: TIMESTEP
0
ITEM: NUMBER OF ATOMS
3080
ITEM: BOX BOUNDS ss ss ss
-3.7007399999999996e-02 3.7007399999999996e-02
-2.0002499999999999e-03 2.5000000000000004e-07
-3.7007399999999996e-02 3.7007399999999996e-02
ITEM: ATOMS id type x y z c_1
0 1 -0.037209375 -0.00125 -0.000590625 1.0
1 1 -0.036028125 -0.00125 -0.007678125 0.000455413315469
2 1 -0.036028125 -0.00125 -0.006496875 0.0
3 1 -0.036028125 -0.00125 -0.005315625 0.0
4 1 -0.036028125 -0.00125 -0.004134375 0.0
5 1 -0.036028125 -0.00125 -0.002953125 0.00207820714601
6 1 -0.036028125 -0.00125 -0.001771875 0.283498095333
7 1 -0.036028125 -0.00125 -0.000590625 0.135201527912
8 1 -0.036028125 -0.00125 0.000590625 0.00482559872057
9 1 -0.036028125 -0.00125 0.001771875 0.226627684957
10 1 -0.036028125 -0.00125 0.002953125 0.00021629040297
11 1 -0.036028125 -0.00125 0.004134375 0.0
12 1 -0.036028125 -0.00125 0.005315625 0.0
13 1 -0.036028125 -0.00125 0.006496875 0.0
14 1 -0.036028125 -0.00125 0.007678125 0.0
15 1 -0.034846875 -0.00125 -0.011221875 0.00920066229086
16 1 -0.034846875 -0.00125 -0.010040625 3.70458005324e-08
17 1 -0.034846875 -0.00125 -0.008859375 0.0648941709999
18 1 -0.034846875 -0.00125 -0.007678125 0.0151197556124
19 1 -0.034846875 -0.00125 -0.006496875 0.0
20 1 -0.034846875 -0.00125 -0.005315625 0.0
21 1 -0.034846875 -0.00125 -0.004134375 1.74019667629e-11
22 1 -0.034846875 -0.00125 -0.002953125 0.091233852548
23 1 -0.034846875 -0.00125 -0.001771875 0.332327069371
24 1 -0.034846875 -0.00125 -0.000590625 0.114532075754
25 1 -0.034846875 -0.00125 0.000590625 0.0187026692579
26 1 -0.034846875 -0.00125 0.001771875 0.186171540908
27 1 -0.034846875 -0.00125 0.002953125 0.0199375341518
28 1 -0.034846875 -0.00125 0.004134375 1.22156214432e-15
29 1 -0.034846875 -0.00125 0.005315625 0.0
30 1 -0.034846875 -0.00125 0.006496875 0.0
31 1 -0.034846875 -0.00125 0.007678125 0.0
32 1 -0.034846875 -0.00125 0.008859375 0.0
33 1 -0.034846875 -0.00125 0.010040625 0.0
34 1 -0.034846875 -0.00125 0.011221875 0.0
35 1 -0.033665625 -0.00125 -0.013584375 0.0
36 1 -0.033665625 -0.00125 -0.012403125 0.148382227834
37 1 -0.033665625 -0.00125 -0.011221875 0.150411393909
38 1 -0.033665625 -0.00125 -0.010040625 0.00474645121499
39 1 -0.033665625 -0.00125 -0.008859375 0.000126657572948
40 1 -0.033665625 -0.00125 -0.007678125 4.52220221462e-06
41 1 -0.033665625 -0.00125 -0.006496875 0.0
42 1 -0.033665625 -0.00125 -0.005315625 0.0
43 1 -0.033665625 -0.00125 -0.004134375 0.000126657572948
44 1 -0.033665625 -0.00125 -0.002953125 0.133535038668
45 1 -0.033665625 -0.00125 -0.001771875 0.332326556717
46 1 -0.033665625 -0.00125 -0.000590625 0.159358746116
47 1 -0.033665625 -0.00125 0.000590625 0.0132007196703
48 1 -0.033665625 -0.00125 0.001771875 0.175758893257
49 1 -0.033665625 -0.00125 0.002953125 0.0509111013046
50 1 -0.033665625 -0.00125 0.004134375 0.0
51 1 -0.033665625 -0.00125 0.005315625 0.0
52 1 -0.033665625 -0.00125 0.006496875 0.0
53 1 -0.033665625 -0.00125 0.007678125 0.0
54 1 -0.033665625 -0.00125 0.008859375 0.0
55 1 -0.033665625 -0.00125 0.010040625 0.0
56 1 -0.033665625 -0.00125 0.011221875 0.0
57 1 -0.033665625 -0.00125 0.012403125 0.0
58 1 -0.033665625 -0.00125 0.013584375 0.0
59 1 -0.032484375 -0.00125 -0.018309375 0.000455413315469
60 1 -0.032484375 -0.00125 -0.017128125 0.161855041324
61 1 -0.032484375 -0.00125 -0.015946875 0.00808631698031
62 1 -0.032484375 -0.00125 -0.014765625 2.28097879054e-07
63 1 -0.032484375 -0.00125 -0.013584375 3.14925560351e-13
64 1 -0.032484375 -0.00125 -0.012403125 0.033597418051
65 1 -0.032484375 -0.00125 -0.011221875 0.263674497482
66 1 -0.032484375 -0.00125 -0.010040625 0.0443322841124
67 1 -0.032484375 -0.00125 -0.008859375 1.74014005978e-11
68 1 -0.032484375 -0.00125 -0.007678125 0.0
69 1 -0.032484375 -0.00125 -0.006496875 0.0
70 1 -0.032484375 -0.00125 -0.005315625 0.0
71 1 -0.032484375 -0.00125 -0.004134375 1.74019667629e-11
72 1 -0.032484375 -0.00125 -0.002953125 0.01386971523
73 1 -0.032484375 -0.00125 -0.001771875 0.247255224964
74 1 -0.032484375 -0.00125 -0.000590625 0.219086517041
75 1 -0.032484375 -0.00125 0.000590625 0.00167036626673
76 1 -0.032484375 -0.00125 0.001771875 0.009871880681
77 1 -0.032484375 -0.00125 0.002953125 3.07879020573e-05
78 1 -0.032484375 -0.00125 0.004134375 0.0
79 1 -0.032484375 -0.00125 0.005315625 0.0
80 1 -0.032484375 -0.00125 0.006496875 0.0
81 1 -0.032484375 -0.00125 0.007678125 0.0
82 1 -0.032484375 -0.00125 0.008859375 0.0
83 1 -0.032484375 -0.00125 0.010040625 0.0
84 1 -0.032484375 -0.00125 0.011221875 0.0
85 1 -0.032484375 -0.00125 0.012403125 0.0
86 1 -0.032484375 -0.00125 0.013584375 0.0
87 1 -0.032484375 -0.00125 0.014765625 0.0
88 1 -0.032484375 -0.00125 0.015946875 0.0
89 1 -0.032484375 -0.00125 0.017128125 0.0
90 1 -0.032484375 -0.00125 0.018309375 0.0
91 1 -0.031303125 -0.00125 -0.019490625 0.000114485899769
92 1 -0.031303125 -0.00125 -0.018309375 0.219782120575
93 1 -0.031303125 -0.00125 -0.017128125 0.091233852548
94 1 -0.031303125 -0.00125 -0.015946875 4.52227625942e-06
95 1 -0.031303125 -0.00125 -0.014765625 6.01557630165e-07
96 1 -0.031303125 -0.00125 -0.013584375 1.77729209249e-06
97 1 -0.031303125 -0.00125 -0.012403125 0.0293069224194
98 1 -0.031303125 -0.00125 -0.011221875 0.00154813293271
99 1 -0.031303125 -0.00125 -0.010040625 1.74019667629e-11
100 1 -0.031303125 -0.00125 -0.008859375 0.0
101 1 -0.031303125 -0.00125 -0.007678125 0.0
102 1 -0.031303125 -0.00125 -0.006496875 0.0
103 1 -0.031303125 -0.00125 -0.005315625 0.0
104 1 -0.031303125 -0.00125 -0.004134375 0.0
105 1 -0.031303125 -0.00125 -0.002953125 0.00474645121499
106 1 -0.031303125 -0.00125 -0.001771875 0.423924351901
107 1 -0.031303125 -0.00125 -0.000590625 0.423924351901
108 1 -0.031303125 -0.00125 0.000590625 0.00228021395688
109 1 -0.031303125 -0.00125 0.001771875 0.0
110 1 -0.031303125 -0.00125 0.002953125 0.0
111 1 -0.031303125 -0.00125 0.004134375 0.0
112 1 -0.031303125 -0.00125 0.005315625 0.0
113 1 -0.031303125 -0.00125 0.006496875 0.0
114 1 -0.031303125 -0.00125 0.007678125 0.0
115 1 -0.031303125 -0.00125 0.008859375 0.0
116 1 -0.031303125 -0.00125 0.010040625 0.0
117 1 -0.031303125 -0.00125 0.011221875 0.0
118 1 -0.031303125 -0.00125 0.012403125 0.0
119 1 -0.031303125 -0.00125 0.013584375 0.0
120 1 -0.031303125 -0.00125 0.014765625 0.0
121 1 -0.031303125 -0.00125 0.015946875 0.0
122 1 -0.031303125 -0.00125 0.017128125 0.0
123 1 -0.031303125 -0.00125 0.018309375 0.0
124 1 -0.031303125 -0.00125 0.019490625 0.0
125 1 -0.030121875 -0.00125 -0.020671875 0.000167490860231
126 1 -0.030121875 -0.00125 -0.019490625 2.79378975481e-22
127 1 -0.030121875 -0.00125 -0.018309375 0.186171540908
128 1 -0.030121875 -0.00125 -0.017128125 0.186171540908
129 1 -0.030121875 -0.00125 -0.015946875 0.0
130 1 -0.030121875 -0.00125 -0.014765625 0.0
131 1 -0.030121875 -0.00125 -0.013584375 1.74014005978e-11
132 1 -0.030121875 -0.00125 -0.012403125 0.000299131636816
133 1 -0.030121875 -0.00125 -0.011221875 6.01557630165e-07
134 1 -0.030121875 -0.00125 -0.010040625 0.0
135 1 -0.030121875 -0.00125 -0.008859375 0.0
136 1 -0.030121875 -0.00125 -0.007678125 0.0
137 1 -0.030121875 -0.00125 -0.006496875 0.0
138 1 -0.030121875 -0.00125 -0.005315625 0.0
139 1 -0.030121875 -0.00125 -0.004134375 0.0
140 1 -0.030121875 -0.00125 -0.002953125 0.000299132858986
141 1 -0.030121875 -0.00125 -0.001771875 0.123928325831
142 1 -0.030121875 -0.00125 -0.000590625 0.21372123369
143 1 -0.030121875 -0.00125 0.000590625 0.00154812546777
144 1 -0.030121875 -0.00125 0.001771875 0.0
145 1 -0.030121875 -0.00125 0.002953125 0.0
146 1 -0.030121875 -0.00125 0.004134375 0.0
147 1 -0.030121875 -0.00125 0.005315625 0.0
148 1 -0.030121875 -0.00125 0.006496875 0.0
149 1 -0.030121875 -0.00125 0.007678125 0.0
150 1 -0.030121875 -0.00125 0.008859375 0.0
151 1 -0.030121875 -0.00125 0.010040625 0.0
152 1 -0.030121875 -0.00125 0.011221875 0.0
153 1 -0.030121875 -0.00125 0.012403125 0.0
154 1 -0.030121875 -0.00125 0.013584375 0.0
155 1 -0.030121875 -0.00125 0.014765625 0.0
156 1 -0.030121875 -0.00125 0.015946875 0.0
157 1 -0.030121875 -0.00125 0.017128125 0.0
158 1 -0.030121875 -0.00125 0.018309375 0.0
159 1 -0.030121875 -0.00125 0.019490625 0.0
160 1 -0.030121875 -0.00125 0.020671875 0.0
161 1 -0.028940625 -0.00125 -0.021853125 0.0
162 1 -0.028940625 -0.00125 -0.020671875 0.0
163 1 -0.028940625 -0.00125 -0.019490625 1.77729209249e-06
164 1 -0.028940625 -0.00125 -0.018309375 0.186171540908
165 1 -0.028940625 -0.00125 -0.017128125 0.186171540908
166 1 -0.028940625 -0.00125 -0.015946875 6.01557630165e-07
167 1 -0.028940625 -0.00125 -0.014765625 0.0
168 1 -0.028940625 -0.00125 -0.013584375 0.0
169 1 -0.028940625 -0.00125 -0.012403125 1.74019667629e-11
170 1 -0.028940625 -0.00125 -0.011221875 1.74019667629e-11
171 1 -0.028940625 -0.00125 -0.010040625 0.0
172 1 -0.028940625 -0.00125 -0.008859375 0.0
173 1 -0.028940625 -0.00125 -0.007678125 0.0
174 1 -0.028940625 -0.00125 -0.006496875 0.0
175 1 -0.028940625 -0.00125 -0.005315625 0.0
176 1 -0.028940625 -0.00125 -0.004134375 0.0
177 1 -0.028940625 -0.00125 -0.002953125 0.0
178 1 -0.028940625 -0.00125 -0.001771875 0.01386971523
179 1 -0.028940625 -0.00125 -0.000590625 0.123928325831
180 1 -0.028940625 -0.00125 0.000590625 7.02299466978e-08
181 1 -0.028940625 -0.00125 0.001771875 0.0
182 1 -0.028940625 -0.00125 0.002953125 0.0
183 1 -0.028940625 -0.00125 0.004134375 0.0
184 1 -0.028940625 -0.00125 0.005315625 0.0
185 1 -0.028940625 -0.00125 0.006496875 0.0
186 1 -0.028940625 -0.00125 0.007678125 0.0
187 1 -0.028940625 -0.00125 0.008859375 0.0
188 1 -0.028940625 -0.00125 0.010040625 0.0
189 1 -0.028940625 -0.00125 0.011221875 0.0
190 1 -0.028940625 -0.00125 0.012403125 0.0
191 1 -0.028940625 -0.00125 0.013584375 0.0
192 1 -0.028940625 -0.00125 0.014765625 0.0
193 1 -0.028940625 -0.00125 0.015946875 0.0
194 1 -0.028940625 -0.00125 0.017128125 0.0
195 1 -0.028940625 -0.00125 0.018309375 0.0
196 1 -0.028940625 -0.00125 0.019490625 0.0
197 1 -0.028940625 -0.00125 0.020671875 0.0
198 1 -0.028940625 -0.00125 0.021853125 0.0
199 1 -0.027759375 -0.00125 -0.024215625 0.0
200 1 -0.027759375 -0.00125 -0.023034375 0.0
201 1 -0.027759375 -0.00125 -0.021853125 0.0
202 1 -0.027759375 -0.00125 -0.020671875 0.0
203 1 -0.027759375 -0.00125 -0.019490625 0.000198679956635
204 1 -0.027759375 -0.00125 -0.018309375 0.133535038668
205 1 -0.027759375 -0.00125 -0.017128125 0.477623491928
206 1 -0.027759375 -0.00125 -0.015946875 0.0443322841124
207 1 -0.027759375 -0.00125 -0.014765625 6.01557630165e-07
208 1 -0.027759375 -0.00125 -0.013584375 0.0
209 1 -0.027759375 -0.00125 -0.012403125 0.0
210 1 -0.027759375 -0.00125 -0.011221875 1.74019667629e-11
211 1 -0.027759375 -0.00125 -0.010040625 0.0
212 1 -0.027759375 -0.00125 -0.008859375 0.0
213 1 -0.027759375 -0.00125 -0.007678125 0.0
214 1 -0.027759375 -0.00125 -0.006496875 0.0
215 1 -0.027759375 -0.00125 -0.005315625 0.0
216 1 -0.027759375 -0.00125 -0.004134375 0.0
217 1 -0.027759375 -0.00125 -0.002953125 0.0
218 1 -0.027759375 -0.00125 -0.001771875 0.0
219 1 -0.027759375 -0.00125 -0.000590625 0.0
220 1 -0.027759375 -0.00125 0.000590625 0.0
221 1 -0.027759375 -0.00125 0.001771875 0.0
222 1 -0.027759375 -0.00125 0.002953125 1.22156214432e-15
223 1 -0.027759375 -0.00125 0.004134375 1.22156214432e-15
224 1 -0.027759375 -0.00125 0.005315625 0.0
225 1 -0.027759375 -0.00125 0.006496875 0.0
226 1 -0.027759375 -0.00125 0.007678125 0.0
227 1 -0.027759375 -0.00125 0.008859375 0.0
228 1 -0.027759375 -0.00125 0.010040625 0.0
229 1 -0.027759375 -0.00125 0.011221875 0.0
230 1 -0.027759375 -0.00125 0.012403125 0.0
231 1 -0.027759375 -0.00125 0.013584375 0.0
232 1 -0.027759375 -0.00125 0.014765625 0.0
233 1 -0.027759375 -0.00125 0.015946875 0.0
234 1 -0.027759375 -0.00125 0.017128125 0.0
235 1 -0.027759375 -0.00125 0.018309375 0.0
236 1 -0.027759375 -0.00125 0.019490625 0.000126658199377
237 1 -0.027759375 -0.00125 0.020671875 1.74019667629e-11
238 1 -0.027759375 -0.00125 0.021853125 0.0
239 1 -0.027759375 -0.00125 0.023034375 0.0
240 1 -0.027759375 -0.00125 0.024215625 0.0
241 1 -0.026578125 -0.00125 -0.026578125 0.00245042064281
242 1 -0.026578125 -0.00125 -0.025396875 0.000828335693049
243 1 -0.026578125 -0.00125 -0.024215625 2.21841074473e-08
244 1 -0.026578125 -0.00125 -0.023034375 3.14925560351e-13
245 1 -0.026578125 -0.00125 -0.021853125 1.28754471296e-08
246 1 -0.026578125 -0.00125 -0.020671875 1.28754471296e-08
247 1 -0.026578125 -0.00125 -0.019490625 0.0197286564877
248 1 -0.026578125 -0.00125 -0.018309375 0.272470696803
249 1 -0.026578125 -0.00125 -0.017128125 0.277980204193
250 1 -0.026578125 -0.00125 -0.015946875 0.126789267973
251 1 -0.026578125 -0.00125 -0.014765625 0.123928564454
252 1 -0.026578125 -0.00125 -0.013584375 0.00118682600863
253 1 -0.026578125 -0.00125 -0.012403125 0.0
254 1 -0.026578125 -0.00125 -0.011221875 0.0
255 1 -0.026578125 -0.00125 -0.010040625 0.0
256 1 -0.026578125 -0.00125 -0.008859375 0.0
257 1 -0.026578125 -0.00125 -0.007678125 0.0
258 1 -0.026578125 -0.00125 -0.006496875 4.71191266874e-10
259 1 -0.026578125 -0.00125 -0.005315625 0.000166812746184
260 1 -0.026578125 -0.00125 -0.004134375 0.0430679408606
261 1 -0.026578125 -0.00125 -0.002953125 0.131597898254
262 1 -0.026578125 -0.00125 -0.001771875 0.167516386218
263 1 -0.026578125 -0.00125 -0.000590625 0.158345721058
264 1 -0.026578125 -0.00125 0.000590625 0.167516386218
265 1 -0.026578125 -0.00125 0.001771875 0.167516386218
266 1 -0.026578125 -0.00125 0.002953125 0.149294323427
267 1 -0.026578125 -0.00125 0.004134375 0.139391631779
268 1 -0.026578125 -0.00125 0.005315625 0.0462612962825
269 1 -0.026578125 -0.00125 0.006496875 0.00217756494509
270 1 -0.026578125 -0.00125 0.007678125 1.40785443464e-30
271 1 -0.026578125 -0.00125 0.008859375 0.0
272 1 -0.026578125 -0.00125 0.010040625 0.0
273 1 -0.026578125 -0.00125 0.011221875 0.0
274 1 -0.026578125 -0.00125 0.012403125 2.79378975481e-22
275 1 -0.026578125 -0.00125 0.013584375 0.0
276 1 -0.026578125 -0.00125 0.014765625 0.0
277 1 -0.026578125 -0.00125 0.015946875 2.79378975481e-22
278 1 -0.026578125 -0.00125 0.017128125 2.79378975481e-22
279 1 -0.026578125 -0.00125 0.018309375 0.000535659512892
280 1 -0.026578125 -0.00125 0.019490625 0.21908624719
281 1 -0.026578125 -0.00125 0.020671875 0.000535662176186
282 1 -0.026578125 -0.00125 0.021853125 0.000126658700522
283 1 -0.026578125 -0.00125 0.023034375 1.28754471296e-08
284 1 -0.026578125 -0.00125 0.024215625 0.0
285 1 -0.026578125 -0.00125 0.025396875 0.00143524538806
286 1 -0.026578125 -0.00125 0.026578125 0.0904523633156
287 1 -0.025396875 -0.00125 -0.026578125 0.000283166419657
288 1 -0.025396875 -0.00125 -0.025396875 0.00474645121499
289 1 -0.025396875 -0.00125 -0.024215625 0.000126658700522
290 1 -0.025396875 -0.00125 -0.023034375 1.74019667629e-11
291 1 -0.025396875 -0.00125 -0.021853125 0.0
292 1 -0.025396875 -0.00125 -0.020671875 6.01557630165e-07
293 1 -0.025396875 -0.00125 -0.019490625 0.00037578590857
294 1 -0.025396875 -0.00125 -0.018309375 0.091233852548
295 1 -0.025396875 -0.00125 -0.017128125 0.332326556717
296 1 -0.025396875 -0.00125 -0.015946875 0.169569401239
297 1 -0.025396875 -0.00125 -0.014765625 0.186171540908
298 1 -0.025396875 -0.00125 -0.013584375 0.00118683011771
299 1 -0.025396875 -0.00125 -0.012403125 0.0
300 1 -0.025396875 -0.00125 -0.011221875 0.0
301 1 -0.025396875 -0.00125 -0.010040625 0.0
302 1 -0.025396875 -0.00125 -0.008859375 4.52220221462e-06
303 1 -0.025396875 -0.00125 -0.007678125 0.000299131636816
304 1 -0.025396875 -0.00125 -0.006496875 0.0335972902817
305 1 -0.025396875 -0.00125 -0.005315625 0.0443323240644
306 1 -0.025396875 -0.00125 -0.004134375 0.00322594350264
307 1 -0.025396875 -0.00125 -0.002953125 6.01557630165e-07
308 1 -0.025396875 -0.00125 -0.001771875 1.74019667629e-11
309 1 -0.025396875 -0.00125 -0.000590625 0.000535659512892
310 1 -0.025396875 -0.00125 0.000590625 0.000126657572948
311 1 -0.025396875 -0.00125 0.001771875 4.52220221462e-06
312 1 -0.025396875 -0.00125 0.002953125 1.74019667629e-11
313 1 -0.025396875 -0.00125 0.004134375 0.00154812961495
314 1 -0.025396875 -0.00125 0.005315625 0.0243767952624
315 1 -0.025396875 -0.00125 0.006496875 0.0243767854583
316 1 -0.025396875 -0.00125 0.007678125 0.0550579642476
317 1 -0.025396875 -0.00125 0.008859375 0.000299131636816
318 1 -0.025396875 -0.00125 0.010040625 0.0
319 1 -0.025396875 -0.00125 0.011221875 1.74019667629e-11
320 1 -0.025396875 -0.00125 0.012403125 1.74019667629e-11
321 1 -0.025396875 -0.00125 0.013584375 0.0
322 1 -0.025396875 -0.00125 0.014765625 1.74019667629e-11
323 1 -0.025396875 -0.00125 0.015946875 4.52220221462e-06
324 1 -0.025396875 -0.00125 0.017128125 1.74019667629e-11
325 1 -0.025396875 -0.00125 0.018309375 0.159358746116
326 1 -0.025396875 -0.00125 0.019490625 0.10266435538
327 1 -0.025396875 -0.00125 0.020671875 0.000126658700522
328 1 -0.025396875 -0.00125 0.021853125 0.000126658700522
329 1 -0.025396875 -0.00125 0.023034375 0.000126658700522
330 1 -0.025396875 -0.00125 0.024215625 4.52227625942e-06
331 1 -0.025396875 -0.00125 0.025396875 0.000126658700522
332 1 -0.025396875 -0.00125 0.026578125 0.00581655333046
333 1 -0.024215625 -0.00125 -0.027759375 0.0
334 1 -0.024215625 -0.00125 -0.026578125 2.16149781974e-05
335 1 -0.024215625 -0.00125 -0.025396875 0.0138696939255
336 1 -0.024215625 -0.00125 -0.024215625 0.000126658700522
337 1 -0.024215625 -0.00125 -0.023034375 0.0
338 1 -0.024215625 -0.00125 -0.021853125 0.0
339 1 -0.024215625 -0.00125 -0.020671875 1.74019667629e-11
340 1 -0.024215625 -0.00125 -0.019490625 1.5838087899e-05
341 1 -0.024215625 -0.00125 -0.018309375 0.00474645121499
342 1 -0.024215625 -0.00125 -0.017128125 0.314525490432
343 1 -0.024215625 -0.00125 -0.015946875 0.21372123369
344 1 -0.024215625 -0.00125 -0.014765625 0.0999860863438
345 1 -0.024215625 -0.00125 -0.013584375 6.0154364058e-07
346 1 -0.024215625 -0.00125 -0.012403125 0.0
347 1 -0.024215625 -0.00125 -0.011221875 0.0
348 1 -0.024215625 -0.00125 -0.010040625 0.0
349 1 -0.024215625 -0.00125 -0.008859375 1.74019667629e-11
350 1 -0.024215625 -0.00125 -0.007678125 0.00154812961495
351 1 -0.024215625 -0.00125 -0.006496875 0.00349873524201
352 1 -0.024215625 -0.00125 -0.005315625 0.000126657572948
353 1 -0.024215625 -0.00125 -0.004134375 1.74019667629e-11
354 1 -0.024215625 -0.00125 -0.002953125 0.0
355 1 -0.024215625 -0.00125 -0.001771875 0.0
356 1 -0.024215625 -0.00125 -0.000590625 0.0
357 1 -0.024215625 -0.00125 0.000590625 0.0
358 1 -0.024215625 -0.00125 0.001771875 1.74019667629e-11
359 1 -0.024215625 -0.00125 0.002953125 0.0
360 1 -0.024215625 -0.00125 0.004134375 1.74019667629e-11
361 1 -0.024215625 -0.00125 0.005315625 0.0
362 1 -0.024215625 -0.00125 0.006496875 1.58378774223e-05
363 1 -0.024215625 -0.00125 0.007678125 0.01386971523
364 1 -0.024215625 -0.00125 0.008859375 0.000891017573599
365 1 -0.024215625 -0.00125 0.010040625 0.0
366 1 -0.024215625 -0.00125 0.011221875 1.74019667629e-11
367 1 -0.024215625 -0.00125 0.012403125 0.0
368 1 -0.024215625 -0.00125 0.013584375 2.79378975481e-22
369 1 -0.024215625 -0.00125 0.014765625 0.00154812961495
370 1 -0.024215625 -0.00125 0.015946875 0.000126657572948
371 1 -0.024215625 -0.00125 0.017128125 0.00249557400626
372 1 -0.024215625 -0.00125 0.018309375 0.224469737872
373 1 -0.024215625 -0.00125 0.019490625 0.041204237912
374 1 -0.024215625 -0.00125 0.020671875 0.000126658700522
375 1 -0.024215625 -0.00125 0.021853125 0.000126658700522
376 1 -0.024215625 -0.00125 0.023034375 0.00154813293271
377 1 -0.024215625 -0.00125 0.024215625 4.52227625942e-06
378 1 -0.024215625 -0.00125 0.025396875 0.00154813293271
379 1 -0.024215625 -0.00125 0.026578125 0.000178487785899
380 1 -0.024215625 -0.00125 0.027759375 0.0
381 1 -0.023034375 -0.00125 -0.027759375 0.0
382 1 -0.023034375 -0.00125 -0.026578125 1.77729209249e-06
383 1 -0.023034375 -0.00125 -0.025396875 0.000126658700522
384 1 -0.023034375 -0.00125 -0.024215625 0.000126658700522
385 1 -0.023034375 -0.00125 -0.023034375 0.000126658700522
386 1 -0.023034375 -0.00125 -0.021853125 1.22156214432e-15
387 1 -0.023034375 -0.00125 -0.020671875 0.0
388 1 -0.023034375 -0.00125 -0.019490625 0.0
389 1 -0.023034375 -0.00125 -0.018309375 4.52227625942e-06
390 1 -0.023034375 -0.00125 -0.017128125 0.0107214510125
391 1 -0.023034375 -0.00125 -0.015946875 0.540277181315
392 1 -0.023034375 -0.00125 -0.014765625 0.0443322841124
393 1 -0.023034375 -0.00125 -0.013584375 1.74014005978e-11
394 1 -0.023034375 -0.00125 -0.012403125 0.0
395 1 -0.023034375 -0.00125 -0.011221875 0.0
396 1 -0.023034375 -0.00125 -0.010040625 0.0
397 1 -0.023034375 -0.00125 -0.008859375 0.0
398 1 -0.023034375 -0.00125 -0.007678125 1.74019667629e-11
399 1 -0.023034375 -0.00125 -0.006496875 3.14925560351e-13
400 1 -0.023034375 -0.00125 -0.005315625 4.52220221462e-06
401 1 -0.023034375 -0.00125 -0.004134375 4.42606186288e-05
402 1 -0.023034375 -0.00125 -0.002953125 0.000126657572948
403 1 -0.023034375 -0.00125 -0.001771875 1.22156214432e-15
404 1 -0.023034375 -0.00125 -0.000590625 3.70458005324e-08
405 1 -0.023034375 -0.00125 0.000590625 4.42606186288e-05
406 1 -0.023034375 -0.00125 0.001771875 0.01386971523
407 1 -0.023034375 -0.00125 0.002953125 0.0293069224194
408 1 -0.023034375 -0.00125 0.004134375 0.0138696939255
409 1 -0.023034375 -0.00125 0.005315625 0.00154812961495
410 1 -0.023034375 -0.00125 0.006496875 1.74014005978e-11
411 1 -0.023034375 -0.00125 0.007678125 0.0
412 1 -0.023034375 -0.00125 0.008859375 0.0
413 1 -0.023034375 -0.00125 0.010040625 0.0
414 1 -0.023034375 -0.00125 0.011221875 0.0
415 1 -0.023034375 -0.00125 0.012403125 1.74019667629e-11
416 1 -0.023034375 -0.00125 0.013584375 1.28752206004e-08
417 1 -0.023034375 -0.00125 0.014765625 0.000126657572948
418 1 -0.023034375 -0.00125 0.015946875 0.00474644221021
419 1 -0.023034375 -0.00125 0.017128125 0.01386971523
420 1 -0.023034375 -0.00125 0.018309375 0.303423296049
421 1 -0.023034375 -0.00125 0.019490625 0.111756940705
422 1 -0.023034375 -0.00125 0.020671875 0.00154813293271
423 1 -0.023034375 -0.00125 0.021853125 6.01557630165e-07
424 1 -0.023034375 -0.00125 0.023034375 0.000126658700522
425 1 -0.023034375 -0.00125 0.024215625 4.52227625942e-06
426 1 -0.023034375 -0.00125 0.025396875 0.00154813293271
427 1 -0.023034375 -0.00125 0.026578125 1.60801117159e-09
428 1 -0.023034375 -0.00125 0.027759375 0.0075399670332
429 1 -0.021853125 -0.00125 -0.028940625 0.0
430 1 -0.021853125 -0.00125 -0.027759375 0.0
431 1 -0.021853125 -0.00125 -0.026578125 1.5838087899e-05
432 1 -0.021853125 -0.00125 -0.025396875 0.0138696939255
433 1 -0.021853125 -0.00125 -0.024215625 0.0138696939255
434 1 -0.021853125 -0.00125 -0.023034375 0.000891023127979
435 1 -0.021853125 -0.00125 -0.021853125 0.000126658700522
436 1 -0.021853125 -0.00125 -0.020671875 0.000126658700522
437 1 -0.021853125 -0.00125 -0.019490625 0.000126658700522
438 1 -0.021853125 -0.00125 -0.018309375 0.000126658700522
439 1 -0.021853125 -0.00125 -0.017128125 0.0381872278205
440 1 -0.021853125 -0.00125 -0.015946875 0.678803556406
441 1 -0.021853125 -0.00125 -0.014765625 0.14929428164
442 1 -0.021853125 -0.00125 -0.013584375 2.79378975481e-22
443 1 -0.021853125 -0.00125 -0.012403125 0.0
444 1 -0.021853125 -0.00125 -0.011221875 0.0
445 1 -0.021853125 -0.00125 -0.010040625 0.0
446 1 -0.021853125 -0.00125 -0.008859375 0.000126658700522
447 1 -0.021853125 -0.00125 -0.007678125 0.0107214510125
448 1 -0.021853125 -0.00125 -0.006496875 0.0722376947642
449 1 -0.021853125 -0.00125 -0.005315625 0.105365916973
450 1 -0.021853125 -0.00125 -0.004134375 0.133535038668
451 1 -0.021853125 -0.00125 -0.002953125 0.0381872649833
452 1 -0.021853125 -0.00125 -0.001771875 0.000126658700522
453 1 -0.021853125 -0.00125 -0.000590625 0.00154813293271
454 1 -0.021853125 -0.00125 0.000590625 0.0138696939255
455 1 -0.021853125 -0.00125 0.001771875 0.0243767952624
456 1 -0.021853125 -0.00125 0.002953125 0.0293069224194
457 1 -0.021853125 -0.00125 0.004134375 0.0509111439139
458 1 -0.021853125 -0.00125 0.005315625 0.0175125972543
459 1 -0.021853125 -0.00125 0.006496875 3.07878012444e-05
460 1 -0.021853125 -0.00125 0.007678125 0.0
461 1 -0.021853125 -0.00125 0.008859375 0.0
462 1 -0.021853125 -0.00125 0.010040625 6.01557630165e-07
463 1 -0.021853125 -0.00125 0.011221875 0.0509111013046
464 1 -0.021853125 -0.00125 0.012403125 0.00474644221021
465 1 -0.021853125 -0.00125 0.013584375 0.00474644221021
466 1 -0.021853125 -0.00125 0.014765625 0.0243767952624
467 1 -0.021853125 -0.00125 0.015946875 0.0698876476892
468 1 -0.021853125 -0.00125 0.017128125 0.0698876476892
469 1 -0.021853125 -0.00125 0.018309375 0.332327069371
470 1 -0.021853125 -0.00125 0.019490625 0.0802910104399
471 1 -0.021853125 -0.00125 0.020671875 0.000126658700522
472 1 -0.021853125 -0.00125 0.021853125 1.74019667629e-11
473 1 -0.021853125 -0.00125 0.023034375 6.01557630165e-07
474 1 -0.021853125 -0.00125 0.024215625 0.0
475 1 -0.021853125 -0.00125 0.025396875 6.01557630165e-07
476 1 -0.021853125 -0.00125 0.026578125 3.14925560351e-13
477 1 -0.021853125 -0.00125 0.027759375 8.26663545308e-15
478 1 -0.021853125 -0.00125 0.028940625 0.00466864259094
479 1 -0.020671875 -0.00125 -0.030121875 0.0
480 1 -0.020671875 -0.00125 -0.028940625 0.0
481 1 -0.020671875 -0.00125 -0.027759375 1.22156214432e-15
482 1 -0.020671875 -0.00125 -0.026578125 0.000535662176186
483 1 -0.020671875 -0.00125 -0.025396875 0.000126658700522
484 1 -0.020671875 -0.00125 -0.024215625 0.0138696939255
485 1 -0.020671875 -0.00125 -0.023034375 0.000126658700522
486 1 -0.020671875 -0.00125 -0.021853125 0.000126658700522
487 1 -0.020671875 -0.00125 -0.020671875 0.000126658700522
488 1 -0.020671875 -0.00125 -0.019490625 0.0085515641959
489 1 -0.020671875 -0.00125 -0.018309375 0.000126658700522
490 1 -0.020671875 -0.00125 -0.017128125 0.0243767756543
491 1 -0.020671875 -0.00125 -0.015946875 0.517900778604
492 1 -0.020671875 -0.00125 -0.014765625 0.159358746116
493 1 -0.020671875 -0.00125 -0.013584375 0.0
494 1 -0.020671875 -0.00125 -0.012403125 0.0
495 1 -0.020671875 -0.00125 -0.011221875 0.000126658700522
496 1 -0.020671875 -0.00125 -0.010040625 0.0107214510125
497 1 -0.020671875 -0.00125 -0.008859375 0.0698876476892
498 1 -0.020671875 -0.00125 -0.007678125 0.07461867463
499 1 -0.020671875 -0.00125 -0.006496875 0.266970274945
500 1 -0.020671875 -0.00125 -0.005315625 0.149294323427
501 1 -0.020671875 -0.00125 -0.004134375 0.21372123369
502 1 -0.020671875 -0.00125 -0.002953125 0.292342717184
503 1 -0.020671875 -0.00125 -0.001771875 0.224469737872
504 1 -0.020671875 -0.00125 -0.000590625 0.24398468453
505 1 -0.020671875 -0.00125 0.000590625 0.186171540908
506 1 -0.020671875 -0.00125 0.001771875 0.0698876476892
507 1 -0.020671875 -0.00125 0.002953125 0.00474645121499
508 1 -0.020671875 -0.00125 0.004134375 0.00154812961495
509 1 -0.020671875 -0.00125 0.005315625 1.74019667629e-11
510 1 -0.020671875 -0.00125 0.006496875 0.000535659512892
511 1 -0.020671875 -0.00125 0.007678125 6.01557630165e-07
512 1 -0.020671875 -0.00125 0.008859375 4.52227625942e-06
513 1 -0.020671875 -0.00125 0.010040625 0.14929428164
514 1 -0.020671875 -0.00125 0.011221875 0.14929428164
515 1 -0.020671875 -0.00125 0.012403125 0.175758893257
516 1 -0.020671875 -0.00125 0.013584375 0.275775596603
517 1 -0.020671875 -0.00125 0.014765625 0.159358746116
518 1 -0.020671875 -0.00125 0.015946875 0.39037452881
519 1 -0.020671875 -0.00125 0.017128125 0.292343226566
520 1 -0.020671875 -0.00125 0.018309375 0.408265146751
521 1 -0.020671875 -0.00125 0.019490625 0.0243766874175
522 1 -0.020671875 -0.00125 0.020671875 0.000126658700522
523 1 -0.020671875 -0.00125 0.021853125 0.0
524 1 -0.020671875 -0.00125 0.023034375 1.74019667629e-11
525 1 -0.020671875 -0.00125 0.024215625 0.0
526 1 -0.020671875 -0.00125 0.025396875 1.22156214432e-15
527 1 -0.020671875 -0.00125 0.026578125 1.28754471296e-08
528 1 -0.020671875 -0.00125 0.027759375 0.0
529 1 -0.020671875 -0.00125 0.028940625 0.0
530 1 -0.020671875 -0.00125 0.030121875 0.0
531 1 -0.019490625 -0.00125 -0.031303125 0.0
532 1 -0.019490625 -0.00125 -0.030121875 0.0
533 1 -0.019490625 -0.00125 -0.028940625 1.40785443464e-30
534 1 -0.019490625 -0.00125 -0.027759375 2.79378975481e-22
535 1 -0.019490625 -0.00125 -0.026578125 0.000696616521108
536 1 -0.019490625 -0.00125 -0.025396875 0.0085515641959
537 1 -0.019490625 -0.00125 -0.024215625 0.00154813293271
538 1 -0.019490625 -0.00125 -0.023034375 0.000126658700522
539 1 -0.019490625 -0.00125 -0.021853125 0.000126658700522
540 1 -0.019490625 -0.00125 -0.020671875 0.00118682874801
541 1 -0.019490625 -0.00125 -0.019490625 0.00701009688725
542 1 -0.019490625 -0.00125 -0.018309375 0.00118682874801
543 1 -0.019490625 -0.00125 -0.017128125 0.0443322841124
544 1 -0.019490625 -0.00125 -0.015946875 0.494405848084
545 1 -0.019490625 -0.00125 -0.014765625 0.263674773127
546 1 -0.019490625 -0.00125 -0.013584375 0.00316006181744
547 1 -0.019490625 -0.00125 -0.012403125 0.154307310461
548 1 -0.019490625 -0.00125 -0.011221875 0.26147917725
549 1 -0.019490625 -0.00125 -0.010040625 0.292343272873
550 1 -0.019490625 -0.00125 -0.008859375 0.175759153192
551 1 -0.019490625 -0.00125 -0.007678125 0.0308802276024
552 1 -0.019490625 -0.00125 -0.006496875 0.00228021504802
553 1 -0.019490625 -0.00125 -0.005315625 0.00393677485419
554 1 -0.019490625 -0.00125 -0.004134375 0.0762228717045
555 1 -0.019490625 -0.00125 -0.002953125 0.387020823644
556 1 -0.019490625 -0.00125 -0.001771875 0.210512024955
557 1 -0.019490625 -0.00125 -0.000590625 0.20092854146
558 1 -0.019490625 -0.00125 0.000590625 0.312303395346
559 1 -0.019490625 -0.00125 0.001771875 0.149294323427
560 1 -0.019490625 -0.00125 0.002953125 0.210512024955
561 1 -0.019490625 -0.00125 0.004134375 0.172658474079
562 1 -0.019490625 -0.00125 0.005315625 0.141358367253
563 1 -0.019490625 -0.00125 0.006496875 0.0856982859829
564 1 -0.019490625 -0.00125 0.007678125 0.0207857033135
565 1 -0.019490625 -0.00125 0.008859375 0.0495617869461
566 1 -0.019490625 -0.00125 0.010040625 0.0156289599994
567 1 -0.019490625 -0.00125 0.011221875 7.6989341285e-05
568 1 -0.019490625 -0.00125 0.012403125 0.00566000619181