ITEM: TIMESTEP
0
ITEM: NUMBER OF ATOMS
3080
ITEM: BOX BOUNDS ss ss ss
-3.7007399999999996e-02 3.7007399999999996e-02
-2.0002499999999999e-03 2.5000000000000004e-07
-3.7007399999999996e-02 3.7007399999999996e-02
ITEM: ATOMS id type x y z c_1
0 1 -0.037209375 -0.00125 -0.000590625 0.0418564289367
1 1 -0.036028125 -0.00125 -0.007678125 0.0
2 1 -0.036028125 -0.00125 -0.006496875 0.0
3 1 -0.036028125 -0.00125 -0.005315625 0.0
4 1 -0.036028125 -0.00125 -0.004134375 0.0
5 1 -0.036028125 -0.00125 -0.002953125 0.0
6 1 -0.036028125 -0.00125 -0.001771875 0.0
7 1 -0.036028125 -0.00125 -0.000590625 0.0
8 1 -0.036028125 -0.00125 0.000590625 0.00106278235535
9 1 -0.036028125 -0.00125 0.001771875 0.0
10 1 -0.036028125 -0.00125 0.002953125 0.0
11 1 -0.036028125 -0.00125 0.004134375 0.0
12 1 -0.036028125 -0.00125 0.005315625 0.0
13 1 -0.036028125 -0.00125 0.006496875 0.0
14 1 -0.036028125 -0.00125 0.007678125 0.00920066229086
15 1 -0.034846875 -0.00125 -0.011221875 0.0
16 1 -0.034846875 -0.00125 -0.010040625 0.0
17 1 -0.034846875 -0.00125 -0.008859375 0.0
18 1 -0.034846875 -0.00125 -0.007678125 0.0
19 1 -0.034846875 -0.00125 -0.006496875 0.0
20 1 -0.034846875 -0.00125 -0.005315625 0.0
21 1 -0.034846875 -0.00125 -0.004134375 0.0
22 1 -0.034846875 -0.00125 -0.002953125 0.0
23 1 -0.034846875 -0.00125 -0.001771875 0.0
24 1 -0.034846875 -0.00125 -0.000590625 0.0
25 1 -0.034846875 -0.00125 0.000590625 0.0
26 1 -0.034846875 -0.00125 0.001771875 0.0
27 1 -0.034846875 -0.00125 0.002953125 1.74019667629e-11
28 1 -0.034846875 -0.00125 0.004134375 0.0
29 1 -0.034846875 -0.00125 0.005315625 0.0
30 1 -0.034846875 -0.00125 0.006496875 0.0
31 1 -0.034846875 -0.00125 0.007678125 0.00255490305485
32 1 -0.034846875 -0.00125 0.008859375 0.0180058544457
33 1 -0.034846875 -0.00125 0.010040625 1.74019667629e-11
34 1 -0.034846875 -0.00125 0.011221875 0.00920066229086
35 1 -0.033665625 -0.00125 -0.013584375 0.0
36 1 -0.033665625 -0.00125 -0.012403125 0.0
37 1 -0.033665625 -0.00125 -0.011221875 0.0
38 1 -0.033665625 -0.00125 -0.010040625 0.0
39 1 -0.033665625 -0.00125 -0.008859375 0.0
40 1 -0.033665625 -0.00125 -0.007678125 0.0
41 1 -0.033665625 -0.00125 -0.006496875 0.0
42 1 -0.033665625 -0.00125 -0.005315625 0.0
43 1 -0.033665625 -0.00125 -0.004134375 0.0
44 1 -0.033665625 -0.00125 -0.002953125 0.0
45 1 -0.033665625 -0.00125 -0.001771875 0.0
46 1 -0.033665625 -0.00125 -0.000590625 0.0
47 1 -0.033665625 -0.00125 0.000590625 1.74019667629e-11
48 1 -0.033665625 -0.00125 0.001771875 0.00322594350264
49 1 -0.033665625 -0.00125 0.002953125 0.0243767952624
50 1 -0.033665625 -0.00125 0.004134375 6.01557630165e-07
51 1 -0.033665625 -0.00125 0.005315625 0.0
52 1 -0.033665625 -0.00125 0.006496875 0.0
53 1 -0.033665625 -0.00125 0.007678125 0.000126658700522
54 1 -0.033665625 -0.00125 0.008859375 0.00668182974929
55 1 -0.033665625 -0.00125 0.010040625 3.70458005324e-08
56 1 -0.033665625 -0.00125 0.011221875 0.0496408870238
57 1 -0.033665625 -0.00125 0.012403125 0.116073884862
58 1 -0.033665625 -0.00125 0.013584375 0.0
59 1 -0.032484375 -0.00125 -0.018309375 0.0
60 1 -0.032484375 -0.00125 -0.017128125 0.0
61 1 -0.032484375 -0.00125 -0.015946875 0.0
62 1 -0.032484375 -0.00125 -0.014765625 0.0
63 1 -0.032484375 -0.00125 -0.013584375 0.0
64 1 -0.032484375 -0.00125 -0.012403125 0.0
65 1 -0.032484375 -0.00125 -0.011221875 0.0
66 1 -0.032484375 -0.00125 -0.010040625 0.0
67 1 -0.032484375 -0.00125 -0.008859375 0.0
68 1 -0.032484375 -0.00125 -0.007678125 0.0
69 1 -0.032484375 -0.00125 -0.006496875 0.0
70 1 -0.032484375 -0.00125 -0.005315625 0.0
71 1 -0.032484375 -0.00125 -0.004134375 0.0
72 1 -0.032484375 -0.00125 -0.002953125 0.0
73 1 -0.032484375 -0.00125 -0.001771875 0.0
74 1 -0.032484375 -0.00125 -0.000590625 2.79378975481e-22
75 1 -0.032484375 -0.00125 0.000590625 0.00154812546777
76 1 -0.032484375 -0.00125 0.001771875 0.0738216716668
77 1 -0.032484375 -0.00125 0.002953125 0.0802910276307
78 1 -0.032484375 -0.00125 0.004134375 0.000198679422043
79 1 -0.032484375 -0.00125 0.005315625 0.0
80 1 -0.032484375 -0.00125 0.006496875 1.92522499223e-60
81 1 -0.032484375 -0.00125 0.007678125 3.07880835211e-05
82 1 -0.032484375 -0.00125 0.008859375 0.0034987411085
83 1 -0.032484375 -0.00125 0.010040625 0.000299132858986
84 1 -0.032484375 -0.00125 0.011221875 0.00565999405337
85 1 -0.032484375 -0.00125 0.012403125 0.0243767854583
86 1 -0.032484375 -0.00125 0.013584375 2.46174118676e-05
87 1 -0.032484375 -0.00125 0.014765625 0.0104089502022
88 1 -0.032484375 -0.00125 0.015946875 4.75803770454e-08
89 1 -0.032484375 -0.00125 0.017128125 0.0075399670332
90 1 -0.032484375 -0.00125 0.018309375 1.7269595626e-06
91 1 -0.031303125 -0.00125 -0.019490625 0.0
92 1 -0.031303125 -0.00125 -0.018309375 0.0
93 1 -0.031303125 -0.00125 -0.017128125 0.0
94 1 -0.031303125 -0.00125 -0.015946875 0.0
95 1 -0.031303125 -0.00125 -0.014765625 0.0
96 1 -0.031303125 -0.00125 -0.013584375 0.0
97 1 -0.031303125 -0.00125 -0.012403125 0.0
98 1 -0.031303125 -0.00125 -0.011221875 0.0
99 1 -0.031303125 -0.00125 -0.010040625 0.0
100 1 -0.031303125 -0.00125 -0.008859375 0.0
101 1 -0.031303125 -0.00125 -0.007678125 0.0
102 1 -0.031303125 -0.00125 -0.006496875 0.0
103 1 -0.031303125 -0.00125 -0.005315625 0.0
104 1 -0.031303125 -0.00125 -0.004134375 0.0
105 1 -0.031303125 -0.00125 -0.002953125 0.0
106 1 -0.031303125 -0.00125 -0.001771875 0.0
107 1 -0.031303125 -0.00125 -0.000590625 1.40785443464e-30
108 1 -0.031303125 -0.00125 0.000590625 4.42606186288e-05
109 1 -0.031303125 -0.00125 0.001771875 0.224469737872
110 1 -0.031303125 -0.00125 0.002953125 0.186171540908
111 1 -0.031303125 -0.00125 0.004134375 1.74019667629e-11
112 1 -0.031303125 -0.00125 0.005315625 0.0
113 1 -0.031303125 -0.00125 0.006496875 0.0
114 1 -0.031303125 -0.00125 0.007678125 6.01557630165e-07
115 1 -0.031303125 -0.00125 0.008859375 0.000126658700522
116 1 -0.031303125 -0.00125 0.010040625 0.000126657572948
117 1 -0.031303125 -0.00125 0.011221875 0.00154812961495
118 1 -0.031303125 -0.00125 0.012403125 0.0293069007767
119 1 -0.031303125 -0.00125 0.013584375 0.00349873524201
120 1 -0.031303125 -0.00125 0.014765625 0.0778403180889
121 1 -0.031303125 -0.00125 0.015946875 0.000126658700522
122 1 -0.031303125 -0.00125 0.017128125 0.00668184101894
123 1 -0.031303125 -0.00125 0.018309375 0.00255490305485
124 1 -0.031303125 -0.00125 0.019490625 2.66892347814e-17
125 1 -0.030121875 -0.00125 -0.020671875 0.0
126 1 -0.030121875 -0.00125 -0.019490625 0.0
127 1 -0.030121875 -0.00125 -0.018309375 0.0
128 1 -0.030121875 -0.00125 -0.017128125 0.0
129 1 -0.030121875 -0.00125 -0.015946875 0.0
130 1 -0.030121875 -0.00125 -0.014765625 0.0
131 1 -0.030121875 -0.00125 -0.013584375 0.0
132 1 -0.030121875 -0.00125 -0.012403125 0.0
133 1 -0.030121875 -0.00125 -0.011221875 0.0
134 1 -0.030121875 -0.00125 -0.010040625 0.0
135 1 -0.030121875 -0.00125 -0.008859375 0.0
136 1 -0.030121875 -0.00125 -0.007678125 0.0
137 1 -0.030121875 -0.00125 -0.006496875 0.0
138 1 -0.030121875 -0.00125 -0.005315625 0.0
139 1 -0.030121875 -0.00125 -0.004134375 0.0
140 1 -0.030121875 -0.00125 -0.002953125 0.0
141 1 -0.030121875 -0.00125 -0.001771875 0.0
142 1 -0.030121875 -0.00125 -0.000590625 0.00474644581212
143 1 -0.030121875 -0.00125 0.000590625 0.321195978177
144 1 -0.030121875 -0.00125 0.001771875 0.598444906404
145 1 -0.030121875 -0.00125 0.002953125 0.14929428164
146 1 -0.030121875 -0.00125 0.004134375 0.0
147 1 -0.030121875 -0.00125 0.005315625 0.0
148 1 -0.030121875 -0.00125 0.006496875 0.0
149 1 -0.030121875 -0.00125 0.007678125 0.0
150 1 -0.030121875 -0.00125 0.008859375 1.74019667629e-11
151 1 -0.030121875 -0.00125 0.010040625 0.0
152 1 -0.030121875 -0.00125 0.011221875 6.01557630165e-07
153 1 -0.030121875 -0.00125 0.012403125 0.000126658700522
154 1 -0.030121875 -0.00125 0.013584375 0.00019868031303
155 1 -0.030121875 -0.00125 0.014765625 0.00474645121499
156 1 -0.030121875 -0.00125 0.015946875 0.00249557865471
157 1 -0.030121875 -0.00125 0.017128125 0.0032259559905
158 1 -0.030121875 -0.00125 0.018309375 4.52227625942e-06
159 1 -0.030121875 -0.00125 0.019490625 0.0
160 1 -0.030121875 -0.00125 0.020671875 0.00466864259094
161 1 -0.028940625 -0.00125 -0.021853125 0.0
162 1 -0.028940625 -0.00125 -0.020671875 0.0
163 1 -0.028940625 -0.00125 -0.019490625 0.0
164 1 -0.028940625 -0.00125 -0.018309375 0.0
165 1 -0.028940625 -0.00125 -0.017128125 0.0
166 1 -0.028940625 -0.00125 -0.015946875 0.0
167 1 -0.028940625 -0.00125 -0.014765625 0.0
168 1 -0.028940625 -0.00125 -0.013584375 0.0
169 1 -0.028940625 -0.00125 -0.012403125 0.0
170 1 -0.028940625 -0.00125 -0.011221875 0.0
171 1 -0.028940625 -0.00125 -0.010040625 0.0
172 1 -0.028940625 -0.00125 -0.008859375 1.74019667629e-11
173 1 -0.028940625 -0.00125 -0.007678125 0.0
174 1 -0.028940625 -0.00125 -0.006496875 0.0
175 1 -0.028940625 -0.00125 -0.005315625 0.0
176 1 -0.028940625 -0.00125 -0.004134375 0.0
177 1 -0.028940625 -0.00125 -0.002953125 0.0
178 1 -0.028940625 -0.00125 -0.001771875 1.74019667629e-11
179 1 -0.028940625 -0.00125 -0.000590625 0.0393806023549
180 1 -0.028940625 -0.00125 0.000590625 0.292342717184
181 1 -0.028940625 -0.00125 0.001771875 0.580550471812
182 1 -0.028940625 -0.00125 0.002953125 0.51118821003
183 1 -0.028940625 -0.00125 0.004134375 0.123928325831
184 1 -0.028940625 -0.00125 0.005315625 0.00154813293271
185 1 -0.028940625 -0.00125 0.006496875 3.14925560351e-13
186 1 -0.028940625 -0.00125 0.007678125 0.0
187 1 -0.028940625 -0.00125 0.008859375 0.0
188 1 -0.028940625 -0.00125 0.010040625 0.0
189 1 -0.028940625 -0.00125 0.011221875 0.0
190 1 -0.028940625 -0.00125 0.012403125 6.01557630165e-07
191 1 -0.028940625 -0.00125 0.013584375 1.28754471296e-08
192 1 -0.028940625 -0.00125 0.014765625 0.000891023127979
193 1 -0.028940625 -0.00125 0.015946875 0.00668182974929
194 1 -0.028940625 -0.00125 0.017128125 0.224469737872
195 1 -0.028940625 -0.00125 0.018309375 0.091233852548
196 1 -0.028940625 -0.00125 0.019490625 0.107179604771
197 1 -0.028940625 -0.00125 0.020671875 0.219782120575
198 1 -0.028940625 -0.00125 0.021853125 0.144907186803
199 1 -0.027759375 -0.00125 -0.024215625 0.0
200 1 -0.027759375 -0.00125 -0.023034375 0.0
201 1 -0.027759375 -0.00125 -0.021853125 0.0
202 1 -0.027759375 -0.00125 -0.020671875 0.0
203 1 -0.027759375 -0.00125 -0.019490625 0.0
204 1 -0.027759375 -0.00125 -0.018309375 0.0
205 1 -0.027759375 -0.00125 -0.017128125 0.0
206 1 -0.027759375 -0.00125 -0.015946875 0.0
207 1 -0.027759375 -0.00125 -0.014765625 0.0
208 1 -0.027759375 -0.00125 -0.013584375 0.0
209 1 -0.027759375 -0.00125 -0.012403125 0.0
210 1 -0.027759375 -0.00125 -0.011221875 1.74019667629e-11
211 1 -0.027759375 -0.00125 -0.010040625 0.000299132858986
212 1 -0.027759375 -0.00125 -0.008859375 1.74019667629e-11
213 1 -0.027759375 -0.00125 -0.007678125 0.0
214 1 -0.027759375 -0.00125 -0.006496875 0.0
215 1 -0.027759375 -0.00125 -0.005315625 0.0
216 1 -0.027759375 -0.00125 -0.004134375 0.0
217 1 -0.027759375 -0.00125 -0.002953125 0.0
218 1 -0.027759375 -0.00125 -0.001771875 0.0
219 1 -0.027759375 -0.00125 -0.000590625 0.000891025349739
220 1 -0.027759375 -0.00125 0.000590625 0.00474645121499
221 1 -0.027759375 -0.00125 0.001771875 0.0698876476892
222 1 -0.027759375 -0.00125 0.002953125 0.281290216208
223 1 -0.027759375 -0.00125 0.004134375 0.470910937833
224 1 -0.027759375 -0.00125 0.005315625 0.540276619563
225 1 -0.027759375 -0.00125 0.006496875 0.0564721843312
226 1 -0.027759375 -0.00125 0.007678125 0.000126658700522
227 1 -0.027759375 -0.00125 0.008859375 1.74019667629e-11
228 1 -0.027759375 -0.00125 0.010040625 0.0
229 1 -0.027759375 -0.00125 0.011221875 0.0
230 1 -0.027759375 -0.00125 0.012403125 0.0
231 1 -0.027759375 -0.00125 0.013584375 7.02299466978e-08
232 1 -0.027759375 -0.00125 0.014765625 0.00668184101894
233 1 -0.027759375 -0.00125 0.015946875 0.196692230435
234 1 -0.027759375 -0.00125 0.017128125 0.224469737872
235 1 -0.027759375 -0.00125 0.018309375 0.091233852548
236 1 -0.027759375 -0.00125 0.019490625 0.172658474079
237 1 -0.027759375 -0.00125 0.020671875 0.123928325831
238 1 -0.027759375 -0.00125 0.021853125 0.262189887378
239 1 -0.027759375 -0.00125 0.023034375 0.135201527912
240 1 -0.027759375 -0.00125 0.024215625 1.7269595626e-06
241 1 -0.026578125 -0.00125 -0.026578125 0.0
242 1 -0.026578125 -0.00125 -0.025396875 0.0
243 1 -0.026578125 -0.00125 -0.024215625 0.0
244 1 -0.026578125 -0.00125 -0.023034375 0.0
245 1 -0.026578125 -0.00125 -0.021853125 0.0
246 1 -0.026578125 -0.00125 -0.020671875 0.0
247 1 -0.026578125 -0.00125 -0.019490625 0.0
248 1 -0.026578125 -0.00125 -0.018309375 0.0
249 1 -0.026578125 -0.00125 -0.017128125 0.0
250 1 -0.026578125 -0.00125 -0.015946875 0.0
251 1 -0.026578125 -0.00125 -0.014765625 0.0
252 1 -0.026578125 -0.00125 -0.013584375 2.71824019983e-12
253 1 -0.026578125 -0.00125 -0.012403125 0.000535662176186
254 1 -0.026578125 -0.00125 -0.011221875 1.68584029366e-07
255 1 -0.026578125 -0.00125 -0.010040625 0.131597938701
256 1 -0.026578125 -0.00125 -0.008859375 0.0762228717045
257 1 -0.026578125 -0.00125 -0.007678125 1.28754471296e-08
258 1 -0.026578125 -0.00125 -0.006496875 0.00188914740582
259 1 -0.026578125 -0.00125 -0.005315625 0.00474647822937
260 1 -0.026578125 -0.00125 -0.004134375 1.77729209249e-06
261 1 -0.026578125 -0.00125 -0.002953125 0.000535659512892
262 1 -0.026578125 -0.00125 -0.001771875 0.000198679422043
263 1 -0.026578125 -0.00125 -0.000590625 0.000126657698233
264 1 -0.026578125 -0.00125 0.000590625 7.02299466978e-08
265 1 -0.026578125 -0.00125 0.001771875 1.77729209249e-06
266 1 -0.026578125 -0.00125 0.002953125 3.07879020573e-05
267 1 -0.026578125 -0.00125 0.004134375 0.000535658751952
268 1 -0.026578125 -0.00125 0.005315625 0.0138697081285
269 1 -0.026578125 -0.00125 0.006496875 0.272470927155
270 1 -0.026578125 -0.00125 0.007678125 0.361324775515
271 1 -0.026578125 -0.00125 0.008859375 0.29234350441
272 1 -0.026578125 -0.00125 0.010040625 0.25819045263
273 1 -0.026578125 -0.00125 0.011221875 0.0475688073201
274 1 -0.026578125 -0.00125 0.012403125 0.00349873230876
275 1 -0.026578125 -0.00125 0.013584375 1.77729209249e-06
276 1 -0.026578125 -0.00125 0.014765625 4.52227625942e-06
277 1 -0.026578125 -0.00125 0.015946875 1.28752206004e-08
278 1 -0.026578125 -0.00125 0.017128125 6.01557630165e-07
279 1 -0.026578125 -0.00125 0.018309375 0.0
280 1 -0.026578125 -0.00125 0.019490625 1.92522499223e-60
281 1 -0.026578125 -0.00125 0.020671875 0.0167441671843
282 1 -0.026578125 -0.00125 0.021853125 0.292342995029
283 1 -0.026578125 -0.00125 0.023034375 0.0113119039806
284 1 -0.026578125 -0.00125 0.024215625 2.79378975481e-22
285 1 -0.026578125 -0.00125 0.025396875 0.0
286 1 -0.026578125 -0.00125 0.026578125 0.0
287 1 -0.025396875 -0.00125 -0.026578125 0.0
288 1 -0.025396875 -0.00125 -0.025396875 0.0
289 1 -0.025396875 -0.00125 -0.024215625 0.0
290 1 -0.025396875 -0.00125 -0.023034375 0.0
291 1 -0.025396875 -0.00125 -0.021853125 0.0
292 1 -0.025396875 -0.00125 -0.020671875 0.0
293 1 -0.025396875 -0.00125 -0.019490625 0.0
294 1 -0.025396875 -0.00125 -0.018309375 0.0
295 1 -0.025396875 -0.00125 -0.017128125 0.0
296 1 -0.025396875 -0.00125 -0.015946875 0.0
297 1 -0.025396875 -0.00125 -0.014765625 0.0
298 1 -0.025396875 -0.00125 -0.013584375 1.28754471296e-08
299 1 -0.025396875 -0.00125 -0.012403125 0.000126658700522
300 1 -0.025396875 -0.00125 -0.011221875 1.22156214432e-15
301 1 -0.025396875 -0.00125 -0.010040625 0.186171540908
302 1 -0.025396875 -0.00125 -0.008859375 0.224469737872
303 1 -0.025396875 -0.00125 -0.007678125 0.0
304 1 -0.025396875 -0.00125 -0.006496875 0.000741933140158
305 1 -0.025396875 -0.00125 -0.005315625 0.0243767756543
306 1 -0.025396875 -0.00125 -0.004134375 0.0347170407724
307 1 -0.025396875 -0.00125 -0.002953125 4.52220221462e-06
308 1 -0.025396875 -0.00125 -0.001771875 1.74019667629e-11
309 1 -0.025396875 -0.00125 -0.000590625 2.731857959e-07
310 1 -0.025396875 -0.00125 0.000590625 1.82076008727e-05
311 1 -0.025396875 -0.00125 0.001771875 0.000299131636816
312 1 -0.025396875 -0.00125 0.002953125 4.52220221462e-06
313 1 -0.025396875 -0.00125 0.004134375 4.52220221462e-06
314 1 -0.025396875 -0.00125 0.005315625 1.74019667629e-11
315 1 -0.025396875 -0.00125 0.006496875 1.74014005978e-11
316 1 -0.025396875 -0.00125 0.007678125 0.00474645121499
317 1 -0.025396875 -0.00125 0.008859375 0.159358746116
318 1 -0.025396875 -0.00125 0.010040625 0.281290216208
319 1 -0.025396875 -0.00125 0.011221875 0.459723333625
320 1 -0.025396875 -0.00125 0.012403125 0.350163267536
321 1 -0.025396875 -0.00125 0.013584375 0.263674497482
322 1 -0.025396875 -0.00125 0.014765625 0.00154813293271
323 1 -0.025396875 -0.00125 0.015946875 1.74019667629e-11
324 1 -0.025396875 -0.00125 0.017128125 0.0
325 1 -0.025396875 -0.00125 0.018309375 1.74019667629e-11
326 1 -0.025396875 -0.00125 0.019490625 4.52221866893e-06
327 1 -0.025396875 -0.00125 0.020671875 0.00474644221021
328 1 -0.025396875 -0.00125 0.021853125 0.0381872278205
329 1 -0.025396875 -0.00125 0.023034375 0.0579023351152
330 1 -0.025396875 -0.00125 0.024215625 0.00154812961495
331 1 -0.025396875 -0.00125 0.025396875 0.0
332 1 -0.025396875 -0.00125 0.026578125 0.0
333 1 -0.024215625 -0.00125 -0.027759375 0.0
334 1 -0.024215625 -0.00125 -0.026578125 0.0
335 1 -0.024215625 -0.00125 -0.025396875 0.0
336 1 -0.024215625 -0.00125 -0.024215625 0.0
337 1 -0.024215625 -0.00125 -0.023034375 0.0
338 1 -0.024215625 -0.00125 -0.021853125 0.0
339 1 -0.024215625 -0.00125 -0.020671875 0.0
340 1 -0.024215625 -0.00125 -0.019490625 0.0
341 1 -0.024215625 -0.00125 -0.018309375 0.0
342 1 -0.024215625 -0.00125 -0.017128125 0.0
343 1 -0.024215625 -0.00125 -0.015946875 0.0
344 1 -0.024215625 -0.00125 -0.014765625 0.0
345 1 -0.024215625 -0.00125 -0.013584375 1.28754471296e-08
346 1 -0.024215625 -0.00125 -0.012403125 0.000126658700522
347 1 -0.024215625 -0.00125 -0.011221875 0.0
348 1 -0.024215625 -0.00125 -0.010040625 0.186171540908
349 1 -0.024215625 -0.00125 -0.008859375 0.186171540908
350 1 -0.024215625 -0.00125 -0.007678125 0.0
351 1 -0.024215625 -0.00125 -0.006496875 2.79378975481e-22
352 1 -0.024215625 -0.00125 -0.005315625 0.00249557400626
353 1 -0.024215625 -0.00125 -0.004134375 0.00668182974929
354 1 -0.024215625 -0.00125 -0.002953125 0.000299131636816
355 1 -0.024215625 -0.00125 -0.001771875 0.0
356 1 -0.024215625 -0.00125 -0.000590625 1.74019667629e-11
357 1 -0.024215625 -0.00125 0.000590625 4.52220221462e-06
358 1 -0.024215625 -0.00125 0.001771875 0.000126657572948
359 1 -0.024215625 -0.00125 0.002953125 0.000299131636816
360 1 -0.024215625 -0.00125 0.004134375 4.52220221462e-06
361 1 -0.024215625 -0.00125 0.005315625 0.0
362 1 -0.024215625 -0.00125 0.006496875 0.0
363 1 -0.024215625 -0.00125 0.007678125 1.74019667629e-11
364 1 -0.024215625 -0.00125 0.008859375 0.00474644221021
365 1 -0.024215625 -0.00125 0.010040625 0.123928365601
366 1 -0.024215625 -0.00125 0.011221875 0.0999860491522
367 1 -0.024215625 -0.00125 0.012403125 0.246165113069
368 1 -0.024215625 -0.00125 0.013584375 0.395964423221
369 1 -0.024215625 -0.00125 0.014765625 0.196692230435
370 1 -0.024215625 -0.00125 0.015946875 0.00474645121499
371 1 -0.024215625 -0.00125 0.017128125 1.74019667629e-11
372 1 -0.024215625 -0.00125 0.018309375 4.52220221462e-06
373 1 -0.024215625 -0.00125 0.019490625 3.07878012444e-05
374 1 -0.024215625 -0.00125 0.020671875 0.00154812961495
375 1 -0.024215625 -0.00125 0.021853125 0.0698876476892
376 1 -0.024215625 -0.00125 0.023034375 0.00668182974929
377 1 -0.024215625 -0.00125 0.024215625 1.74019667629e-11
378 1 -0.024215625 -0.00125 0.025396875 0.0
379 1 -0.024215625 -0.00125 0.026578125 0.0
380 1 -0.024215625 -0.00125 0.027759375 0.0
381 1 -0.023034375 -0.00125 -0.027759375 0.0
382 1 -0.023034375 -0.00125 -0.026578125 0.0
383 1 -0.023034375 -0.00125 -0.025396875 0.0
384 1 -0.023034375 -0.00125 -0.024215625 0.0
385 1 -0.023034375 -0.00125 -0.023034375 0.0
386 1 -0.023034375 -0.00125 -0.021853125 0.0
387 1 -0.023034375 -0.00125 -0.020671875 0.0
388 1 -0.023034375 -0.00125 -0.019490625 0.0
389 1 -0.023034375 -0.00125 -0.018309375 0.0
390 1 -0.023034375 -0.00125 -0.017128125 0.0
391 1 -0.023034375 -0.00125 -0.015946875 0.0
392 1 -0.023034375 -0.00125 -0.014765625 0.0
393 1 -0.023034375 -0.00125 -0.013584375 1.28754471296e-08
394 1 -0.023034375 -0.00125 -0.012403125 0.000126658700522
395 1 -0.023034375 -0.00125 -0.011221875 1.74019667629e-11
396 1 -0.023034375 -0.00125 -0.010040625 0.091233852548
397 1 -0.023034375 -0.00125 -0.008859375 0.430635345024
398 1 -0.023034375 -0.00125 -0.007678125 0.000126658700522
399 1 -0.023034375 -0.00125 -0.006496875 1.74019667629e-11
400 1 -0.023034375 -0.00125 -0.005315625 0.000299131636816
401 1 -0.023034375 -0.00125 -0.004134375 4.52220221462e-06
402 1 -0.023034375 -0.00125 -0.002953125 0.0
403 1 -0.023034375 -0.00125 -0.001771875 0.0
404 1 -0.023034375 -0.00125 -0.000590625 0.0
405 1 -0.023034375 -0.00125 0.000590625 2.79378975481e-22
406 1 -0.023034375 -0.00125 0.001771875 1.74019667629e-11
407 1 -0.023034375 -0.00125 0.002953125 1.74019667629e-11
408 1 -0.023034375 -0.00125 0.004134375 4.52220221462e-06
409 1 -0.023034375 -0.00125 0.005315625 1.74019667629e-11
410 1 -0.023034375 -0.00125 0.006496875 0.0
411 1 -0.023034375 -0.00125 0.007678125 0.0
412 1 -0.023034375 -0.00125 0.008859375 1.74019667629e-11
413 1 -0.023034375 -0.00125 0.010040625 0.000891017573599
414 1 -0.023034375 -0.00125 0.011221875 0.00249557865471
415 1 -0.023034375 -0.00125 0.012403125 0.00668182974929
416 1 -0.023034375 -0.00125 0.013584375 0.00855160641309
417 1 -0.023034375 -0.00125 0.014765625 0.252716464147
418 1 -0.023034375 -0.00125 0.015946875 0.339012100871
419 1 -0.023034375 -0.00125 0.017128125 0.0622852495443
420 1 -0.023034375 -0.00125 0.018309375 0.0443322841124
421 1 -0.023034375 -0.00125 0.019490625 0.00228020631897
422 1 -0.023034375 -0.00125 0.020671875 0.000126657572948
423 1 -0.023034375 -0.00125 0.021853125 0.0243767756543
424 1 -0.023034375 -0.00125 0.023034375 0.0138696939255
425 1 -0.023034375 -0.00125 0.024215625 0.0
426 1 -0.023034375 -0.00125 0.025396875 0.0
427 1 -0.023034375 -0.00125 0.026578125 2.79378975481e-22
428 1 -0.023034375 -0.00125 0.027759375 0.0
429 1 -0.021853125 -0.00125 -0.028940625 0.0
430 1 -0.021853125 -0.00125 -0.027759375 0.0
431 1 -0.021853125 -0.00125 -0.026578125 0.0
432 1 -0.021853125 -0.00125 -0.025396875 0.0
433 1 -0.021853125 -0.00125 -0.024215625 0.0
434 1 -0.021853125 -0.00125 -0.023034375 0.0
435 1 -0.021853125 -0.00125 -0.021853125 0.0
436 1 -0.021853125 -0.00125 -0.020671875 0.0
437 1 -0.021853125 -0.00125 -0.019490625 0.0
438 1 -0.021853125 -0.00125 -0.018309375 0.0
439 1 -0.021853125 -0.00125 -0.017128125 0.0
440 1 -0.021853125 -0.00125 -0.015946875 0.0
441 1 -0.021853125 -0.00125 -0.014765625 0.0
442 1 -0.021853125 -0.00125 -0.013584375 1.28754471296e-08
443 1 -0.021853125 -0.00125 -0.012403125 0.00154813293271
444 1 -0.021853125 -0.00125 -0.011221875 0.0
445 1 -0.021853125 -0.00125 -0.010040625 0.000126658700522
446 1 -0.021853125 -0.00125 -0.008859375 0.430635345024
447 1 -0.021853125 -0.00125 -0.007678125 0.091233852548
448 1 -0.021853125 -0.00125 -0.006496875 2.79378975481e-22
449 1 -0.021853125 -0.00125 -0.005315625 1.74019667629e-11
450 1 -0.021853125 -0.00125 -0.004134375 1.74019667629e-11
451 1 -0.021853125 -0.00125 -0.002953125 0.0
452 1 -0.021853125 -0.00125 -0.001771875 0.0
453 1 -0.021853125 -0.00125 -0.000590625 0.0
454 1 -0.021853125 -0.00125 0.000590625 0.0
455 1 -0.021853125 -0.00125 0.001771875 0.0
456 1 -0.021853125 -0.00125 0.002953125 0.0
457 1 -0.021853125 -0.00125 0.004134375 0.0
458 1 -0.021853125 -0.00125 0.005315625 1.74019667629e-11
459 1 -0.021853125 -0.00125 0.006496875 0.0
460 1 -0.021853125 -0.00125 0.007678125 0.0
461 1 -0.021853125 -0.00125 0.008859375 0.0
462 1 -0.021853125 -0.00125 0.010040625 0.0
463 1 -0.021853125 -0.00125 0.011221875 0.0
464 1 -0.021853125 -0.00125 0.012403125 0.0
465 1 -0.021853125 -0.00125 0.013584375 0.0
466 1 -0.021853125 -0.00125 0.014765625 0.000126658700522
467 1 -0.021853125 -0.00125 0.015946875 0.0999860491522
468 1 -0.021853125 -0.00125 0.017128125 0.21372123369
469 1 -0.021853125 -0.00125 0.018309375 0.263674497482
470 1 -0.021853125 -0.00125 0.019490625 0.0529662928778
471 1 -0.021853125 -0.00125 0.020671875 0.000126657572948
472 1 -0.021853125 -0.00125 0.021853125 0.091233852548
473 1 -0.021853125 -0.00125 0.023034375 0.175758893257
474 1 -0.021853125 -0.00125 0.024215625 0.00474645121499
475 1 -0.021853125 -0.00125 0.025396875 0.000299131636816
476 1 -0.021853125 -0.00125 0.026578125 2.79378975481e-22
477 1 -0.021853125 -0.00125 0.027759375 0.0
478 1 -0.021853125 -0.00125 0.028940625 0.0
479 1 -0.020671875 -0.00125 -0.030121875 0.0
480 1 -0.020671875 -0.00125 -0.028940625 0.0
481 1 -0.020671875 -0.00125 -0.027759375 0.0
482 1 -0.020671875 -0.00125 -0.026578125 0.0
483 1 -0.020671875 -0.00125 -0.025396875 0.0
484 1 -0.020671875 -0.00125 -0.024215625 0.0
485 1 -0.020671875 -0.00125 -0.023034375 0.0
486 1 -0.020671875 -0.00125 -0.021853125 0.0
487 1 -0.020671875 -0.00125 -0.020671875 0.0
488 1 -0.020671875 -0.00125 -0.019490625 2.79378975481e-22
489 1 -0.020671875 -0.00125 -0.018309375 6.01557630165e-07
490 1 -0.020671875 -0.00125 -0.017128125 0.000126658700522
491 1 -0.020671875 -0.00125 -0.015946875 0.000126658700522
492 1 -0.020671875 -0.00125 -0.014765625 0.000126658700522
493 1 -0.020671875 -0.00125 -0.013584375 0.00284458672872
494 1 -0.020671875 -0.00125 -0.012403125 0.000126658700522
495 1 -0.020671875 -0.00125 -0.011221875 0.000126658700522
496 1 -0.020671875 -0.00125 -0.010040625 0.000126658700522
497 1 -0.020671875 -0.00125 -0.008859375 0.224469737872
498 1 -0.020671875 -0.00125 -0.007678125 0.186171540908
499 1 -0.020671875 -0.00125 -0.006496875 0.00037578590857
500 1 -0.020671875 -0.00125 -0.005315625 0.000891017573599
501 1 -0.020671875 -0.00125 -0.004134375 1.74019667629e-11
502 1 -0.020671875 -0.00125 -0.002953125 0.0
503 1 -0.020671875 -0.00125 -0.001771875 0.0
504 1 -0.020671875 -0.00125 -0.000590625 0.0
505 1 -0.020671875 -0.00125 0.000590625 0.0
506 1 -0.020671875 -0.00125 0.001771875 0.0
507 1 -0.020671875 -0.00125 0.002953125 0.0
508 1 -0.020671875 -0.00125 0.004134375 0.0
509 1 -0.020671875 -0.00125 0.005315625 0.0
510 1 -0.020671875 -0.00125 0.006496875 0.0
511 1 -0.020671875 -0.00125 0.007678125 0.0
512 1 -0.020671875 -0.00125 0.008859375 0.0
513 1 -0.020671875 -0.00125 0.010040625 0.0
514 1 -0.020671875 -0.00125 0.011221875 0.0
515 1 -0.020671875 -0.00125 0.012403125 0.0
516 1 -0.020671875 -0.00125 0.013584375 2.79378975481e-22
517 1 -0.020671875 -0.00125 0.014765625 1.74019667629e-11
518 1 -0.020671875 -0.00125 0.015946875 6.01557630165e-07
519 1 -0.020671875 -0.00125 0.017128125 0.0138696939255
520 1 -0.020671875 -0.00125 0.018309375 0.186171540908
521 1 -0.020671875 -0.00125 0.019490625 0.114532075754
522 1 -0.020671875 -0.00125 0.020671875 0.000891023127979
523 1 -0.020671875 -0.00125 0.021853125 0.14929428164
524 1 -0.020671875 -0.00125 0.023034375 0.281290216208
525 1 -0.020671875 -0.00125 0.024215625 0.0509111013046
526 1 -0.020671875 -0.00125 0.025396875 0.00154813293271
527 1 -0.020671875 -0.00125 0.026578125 1.74019667629e-11
528 1 -0.020671875 -0.00125 0.027759375 6.01557630165e-07
529 1 -0.020671875 -0.00125 0.028940625 0.0
530 1 -0.020671875 -0.00125 0.030121875 0.0
531 1 -0.019490625 -0.00125 -0.031303125 0.0
532 1 -0.019490625 -0.00125 -0.030121875 0.0
533 1 -0.019490625 -0.00125 -0.028940625 0.0
534 1 -0.019490625 -0.00125 -0.027759375 0.0
535 1 -0.019490625 -0.00125 -0.026578125 0.0
536 1 -0.019490625 -0.00125 -0.025396875 0.0
537 1 -0.019490625 -0.00125 -0.024215625 0.0
538 1 -0.019490625 -0.00125 -0.023034375 0.0
539 1 -0.019490625 -0.00125 -0.021853125 0.0
540 1 -0.019490625 -0.00125 -0.020671875 3.07878012444e-05
541 1 -0.019490625 -0.00125 -0.019490625 0.00518995872069
542 1 -0.019490625 -0.00125 -0.018309375 0.0335973832048
543 1 -0.019490625 -0.00125 -0.017128125 0.0364314804587
544 1 -0.019490625 -0.00125 -0.015946875 0.0267810299687
545 1 -0.019490625 -0.00125 -0.014765625 0.0187026438913
546 1 -0.019490625 -0.00125 -0.013584375 0.00646863194331
547 1 -0.019490625 -0.00125 -0.012403125 0.0138696939255
548 1 -0.019490625 -0.00125 -0.011221875 0.0138696939255
549 1 -0.019490625 -0.00125 -0.010040625 0.00118682874801
550 1 -0.019490625 -0.00125 -0.008859375 0.205178839796
551 1 -0.019490625 -0.00125 -0.007678125 0.272470696803
552 1 -0.019490625 -0.00125 -0.006496875 0.00734858060248
553 1 -0.019490625 -0.00125 -0.005315625 0.283498372597
554 1 -0.019490625 -0.00125 -0.004134375 0.00855160641309
555 1 -0.019490625 -0.00125 -0.002953125 0.0
556 1 -0.019490625 -0.00125 -0.001771875 2.79378975481e-22
557 1 -0.019490625 -0.00125 -0.000590625 2.79378975481e-22
558 1 -0.019490625 -0.00125 0.000590625 0.0
559 1 -0.019490625 -0.00125 0.001771875 0.0
560 1 -0.019490625 -0.00125 0.002953125 0.0
561 1 -0.019490625 -0.00125 0.004134375 0.0
562 1 -0.019490625 -0.00125 0.005315625 0.0
563 1 -0.019490625 -0.00125 0.006496875 9.25291560019e-26
564 1 -0.019490625 -0.00125 0.007678125 7.46395957453e-06
565 1 -0.019490625 -0.00125 0.008859375 0.00118683011771
566 1 -0.019490625 -0.00125 0.010040625 1.28752206004e-08
567 1 -0.019490625 -0.00125 0.011221875 1.28752206004e-08
568 1 -0.019490625 -0.00125 0.012403125 7.02299466978e-08
569 1 -0.019490625 -0.00125 0.013584375 7.49709589486e-44
570 1 -0.019490625 -0.00125 0.014765625 7.6989341285e-05
571 1 -0.019490625 -0.00125 0.015946875 6.0154364058e-07
572 1 -0.019490625 -0.00125 0.017128125 1.28754471296e-08
573 1 -0.019490625 -0.00125 0.018309375 0.0564721545756
574 1 -0.019490625 -0.00125 0.019490625 0.215328756597
575 1 -0.019490625 -0.00125 0.020671875 0.315636449038
576 1 -0.019490625 -0.00125 0.021853125 0.416094119369
577 1 -0.019490625 -0.00125 0.023034375 0.0844387896825
578 1 -0.019490625 -0.00125 0.024215625 0.00668182974929
579 1 -0.019490625 -0.00125 0.025396875 0.00668182974929
580 1 -0.019490625 -0.00125 0.026578125 0.179390230368
581 1 -0.019490625 -0.00125 0.027759375 0.0802910276307
582 1 -0.019490625 -0.00125 0.028940625 0.0207856853608