ITEM: TIMESTEP
0
ITEM: NUMBER OF ATOMS
3080
ITEM: BOX BOUNDS ss ss ss
-3.7007399999999996e-02 3.7007399999999996e-02
-2.0002499999999999e-03 2.5000000000000004e-07
-3.7007399999999996e-02 3.7007399999999996e-02
ITEM: ATOMS id type x y z c_1
0 1 -0.037209375 -0.00125 -0.000590625 0.0920225846461
1 1 -0.036028125 -0.00125 -0.007678125 0.0
2 1 -0.036028125 -0.00125 -0.006496875 0.0
3 1 -0.036028125 -0.00125 -0.005315625 0.0
4 1 -0.036028125 -0.00125 -0.004134375 3.70458005324e-08
5 1 -0.036028125 -0.00125 -0.002953125 0.00021629040297
6 1 -0.036028125 -0.00125 -0.001771875 0.0482287944365
7 1 -0.036028125 -0.00125 -0.000590625 0.297618351812
8 1 -0.036028125 -0.00125 0.000590625 0.5
9 1 -0.036028125 -0.00125 0.001771875 0.283498095333
10 1 -0.036028125 -0.00125 0.002953125 3.70458005324e-08
11 1 -0.036028125 -0.00125 0.004134375 0.00021629040297
12 1 -0.036028125 -0.00125 0.005315625 0.00409061398778
13 1 -0.036028125 -0.00125 0.006496875 1.22148603069e-15
14 1 -0.036028125 -0.00125 0.007678125 0.0
15 1 -0.034846875 -0.00125 -0.011221875 0.00920066229086
16 1 -0.034846875 -0.00125 -0.010040625 3.70458005324e-08
17 1 -0.034846875 -0.00125 -0.008859375 0.0
18 1 -0.034846875 -0.00125 -0.007678125 0.0
19 1 -0.034846875 -0.00125 -0.006496875 0.0
20 1 -0.034846875 -0.00125 -0.005315625 0.0
21 1 -0.034846875 -0.00125 -0.004134375 0.0
22 1 -0.034846875 -0.00125 -0.002953125 1.74019667629e-11
23 1 -0.034846875 -0.00125 -0.001771875 0.000299132858986
24 1 -0.034846875 -0.00125 -0.000590625 0.164446753095
25 1 -0.034846875 -0.00125 0.000590625 0.5
26 1 -0.034846875 -0.00125 0.001771875 0.10900325236
27 1 -0.034846875 -0.00125 0.002953125 0.00154812961495
28 1 -0.034846875 -0.00125 0.004134375 0.0
29 1 -0.034846875 -0.00125 0.005315625 1.74019667629e-11
30 1 -0.034846875 -0.00125 0.006496875 1.74014005978e-11
31 1 -0.034846875 -0.00125 0.007678125 0.0
32 1 -0.034846875 -0.00125 0.008859375 0.182529172436
33 1 -0.034846875 -0.00125 0.010040625 0.226627684957
34 1 -0.034846875 -0.00125 0.011221875 0.0
35 1 -0.033665625 -0.00125 -0.013584375 1.60752748465e-07
36 1 -0.033665625 -0.00125 -0.012403125 0.232375684815
37 1 -0.033665625 -0.00125 -0.011221875 0.190491562218
38 1 -0.033665625 -0.00125 -0.010040625 6.01557630165e-07
39 1 -0.033665625 -0.00125 -0.008859375 0.0
40 1 -0.033665625 -0.00125 -0.007678125 0.0
41 1 -0.033665625 -0.00125 -0.006496875 2.79378975481e-22
42 1 -0.033665625 -0.00125 -0.005315625 1.74019667629e-11
43 1 -0.033665625 -0.00125 -0.004134375 0.0
44 1 -0.033665625 -0.00125 -0.002953125 0.0
45 1 -0.033665625 -0.00125 -0.001771875 1.74019667629e-11
46 1 -0.033665625 -0.00125 -0.000590625 0.177832519137
47 1 -0.033665625 -0.00125 0.000590625 0.68991847806
48 1 -0.033665625 -0.00125 0.001771875 0.159358746116
49 1 -0.033665625 -0.00125 0.002953125 0.00249557865471
50 1 -0.033665625 -0.00125 0.004134375 1.22156214432e-15
51 1 -0.033665625 -0.00125 0.005315625 0.0
52 1 -0.033665625 -0.00125 0.006496875 2.79378975481e-22
53 1 -0.033665625 -0.00125 0.007678125 1.74019667629e-11
54 1 -0.033665625 -0.00125 0.008859375 0.186171540908
55 1 -0.033665625 -0.00125 0.010040625 0.186171540908
56 1 -0.033665625 -0.00125 0.011221875 0.0
57 1 -0.033665625 -0.00125 0.012403125 0.182529172436
58 1 -0.033665625 -0.00125 0.013584375 0.0574716124095
59 1 -0.032484375 -0.00125 -0.018309375 0.0
60 1 -0.032484375 -0.00125 -0.017128125 0.0
61 1 -0.032484375 -0.00125 -0.015946875 1.27653918126e-20
62 1 -0.032484375 -0.00125 -0.014765625 8.50218305249e-07
63 1 -0.032484375 -0.00125 -0.013584375 0.0
64 1 -0.032484375 -0.00125 -0.012403125 0.186171540908
65 1 -0.032484375 -0.00125 -0.011221875 0.186171540908
66 1 -0.032484375 -0.00125 -0.010040625 2.79378975481e-22
67 1 -0.032484375 -0.00125 -0.008859375 0.0
68 1 -0.032484375 -0.00125 -0.007678125 0.0
69 1 -0.032484375 -0.00125 -0.006496875 7.02299466978e-08
70 1 -0.032484375 -0.00125 -0.005315625 0.0216537239851
71 1 -0.032484375 -0.00125 -0.004134375 1.74019667629e-11
72 1 -0.032484375 -0.00125 -0.002953125 7.02299466978e-08
73 1 -0.032484375 -0.00125 -0.001771875 0.0138697507376
74 1 -0.032484375 -0.00125 -0.000590625 0.134993005411
75 1 -0.032484375 -0.00125 0.000590625 0.401555374333
76 1 -0.032484375 -0.00125 0.001771875 0.247255224964
77 1 -0.032484375 -0.00125 0.002953125 6.0155026719e-07
78 1 -0.032484375 -0.00125 0.004134375 0.0
79 1 -0.032484375 -0.00125 0.005315625 0.0
80 1 -0.032484375 -0.00125 0.006496875 1.92522499223e-60
81 1 -0.032484375 -0.00125 0.007678125 0.00474646562265
82 1 -0.032484375 -0.00125 0.008859375 0.465317098167
83 1 -0.032484375 -0.00125 0.010040625 0.21908624719
84 1 -0.032484375 -0.00125 0.011221875 3.14925560351e-13
85 1 -0.032484375 -0.00125 0.012403125 0.21908624719
86 1 -0.032484375 -0.00125 0.013584375 0.0318177889532
87 1 -0.032484375 -0.00125 0.014765625 0.000145843893558
88 1 -0.032484375 -0.00125 0.015946875 0.0472271182056
89 1 -0.032484375 -0.00125 0.017128125 0.0180058544457
90 1 -0.032484375 -0.00125 0.018309375 0.0700209838113
91 1 -0.031303125 -0.00125 -0.019490625 0.0
92 1 -0.031303125 -0.00125 -0.018309375 0.0
93 1 -0.031303125 -0.00125 -0.017128125 0.0
94 1 -0.031303125 -0.00125 -0.015946875 0.0
95 1 -0.031303125 -0.00125 -0.014765625 0.0
96 1 -0.031303125 -0.00125 -0.013584375 1.40785443464e-30
97 1 -0.031303125 -0.00125 -0.012403125 0.186171540908
98 1 -0.031303125 -0.00125 -0.011221875 0.186171540908
99 1 -0.031303125 -0.00125 -0.010040625 0.0
100 1 -0.031303125 -0.00125 -0.008859375 0.0
101 1 -0.031303125 -0.00125 -0.007678125 4.52227625942e-06
102 1 -0.031303125 -0.00125 -0.006496875 2.79378975481e-22
103 1 -0.031303125 -0.00125 -0.005315625 1.74019667629e-11
104 1 -0.031303125 -0.00125 -0.004134375 0.0
105 1 -0.031303125 -0.00125 -0.002953125 0.0
106 1 -0.031303125 -0.00125 -0.001771875 0.01386971523
107 1 -0.031303125 -0.00125 -0.000590625 0.00734858299864
108 1 -0.031303125 -0.00125 0.000590625 0.224469737872
109 1 -0.031303125 -0.00125 0.001771875 0.339012613878
110 1 -0.031303125 -0.00125 0.002953125 0.0138696939255
111 1 -0.031303125 -0.00125 0.004134375 0.00668184101894
112 1 -0.031303125 -0.00125 0.005315625 4.52220221462e-06
113 1 -0.031303125 -0.00125 0.006496875 7.02299466978e-08
114 1 -0.031303125 -0.00125 0.007678125 0.213721771478
115 1 -0.031303125 -0.00125 0.008859375 0.5
116 1 -0.031303125 -0.00125 0.010040625 0.14929428164
117 1 -0.031303125 -0.00125 0.011221875 0.01386971523
118 1 -0.031303125 -0.00125 0.012403125 0.263674497482
119 1 -0.031303125 -0.00125 0.013584375 0.0443322574778
120 1 -0.031303125 -0.00125 0.014765625 0.123928325831
121 1 -0.031303125 -0.00125 0.015946875 0.235286796702
122 1 -0.031303125 -0.00125 0.017128125 0.241806863156
123 1 -0.031303125 -0.00125 0.018309375 0.190491562218
124 1 -0.031303125 -0.00125 0.019490625 0.000209614639352
125 1 -0.030121875 -0.00125 -0.020671875 0.0
126 1 -0.030121875 -0.00125 -0.019490625 0.0
127 1 -0.030121875 -0.00125 -0.018309375 0.0
128 1 -0.030121875 -0.00125 -0.017128125 0.0
129 1 -0.030121875 -0.00125 -0.015946875 0.0
130 1 -0.030121875 -0.00125 -0.014765625 0.0
131 1 -0.030121875 -0.00125 -0.013584375 0.0156289828626
132 1 -0.030121875 -0.00125 -0.012403125 0.332326556717
133 1 -0.030121875 -0.00125 -0.011221875 0.0550579642476
134 1 -0.030121875 -0.00125 -0.010040625 1.22156214432e-15
135 1 -0.030121875 -0.00125 -0.008859375 0.0
136 1 -0.030121875 -0.00125 -0.007678125 0.000126658700522
137 1 -0.030121875 -0.00125 -0.006496875 0.00154813459158
138 1 -0.030121875 -0.00125 -0.005315625 0.00474645121499
139 1 -0.030121875 -0.00125 -0.004134375 1.74019667629e-11
140 1 -0.030121875 -0.00125 -0.002953125 0.0
141 1 -0.030121875 -0.00125 -0.001771875 1.74019667629e-11
142 1 -0.030121875 -0.00125 -0.000590625 0.00228022268595
143 1 -0.030121875 -0.00125 0.000590625 0.350163267536
144 1 -0.030121875 -0.00125 0.001771875 0.298988495482
145 1 -0.030121875 -0.00125 0.002953125 0.408265755091
146 1 -0.030121875 -0.00125 0.004134375 0.252716967449
147 1 -0.030121875 -0.00125 0.005315625 0.0778403520653
148 1 -0.030121875 -0.00125 0.006496875 0.00668183425715
149 1 -0.030121875 -0.00125 0.007678125 0.00668182974929
150 1 -0.030121875 -0.00125 0.008859375 0.0138696939255
151 1 -0.030121875 -0.00125 0.010040625 0.0107214510125
152 1 -0.030121875 -0.00125 0.011221875 0.0509111013046
153 1 -0.030121875 -0.00125 0.012403125 0.419450043018
154 1 -0.030121875 -0.00125 0.013584375 0.364674801846
155 1 -0.030121875 -0.00125 0.014765625 0.207309638309
156 1 -0.030121875 -0.00125 0.015946875 0.638675411355
157 1 -0.030121875 -0.00125 0.017128125 0.453010380117
158 1 -0.030121875 -0.00125 0.018309375 0.0381872278205
159 1 -0.030121875 -0.00125 0.019490625 2.21841074473e-08
160 1 -0.030121875 -0.00125 0.020671875 0.0
161 1 -0.028940625 -0.00125 -0.021853125 2.52587523623e-07
162 1 -0.028940625 -0.00125 -0.020671875 0.0
163 1 -0.028940625 -0.00125 -0.019490625 2.79378975481e-22
164 1 -0.028940625 -0.00125 -0.018309375 6.01557630165e-07
165 1 -0.028940625 -0.00125 -0.017128125 1.74019667629e-11
166 1 -0.028940625 -0.00125 -0.015946875 0.000126658700522
167 1 -0.028940625 -0.00125 -0.014765625 0.00668182974929
168 1 -0.028940625 -0.00125 -0.013584375 0.0698874686089
169 1 -0.028940625 -0.00125 -0.012403125 0.186171540908
170 1 -0.028940625 -0.00125 -0.011221875 0.00668182974929
171 1 -0.028940625 -0.00125 -0.010040625 0.000891023127979
172 1 -0.028940625 -0.00125 -0.008859375 0.000126657572948
173 1 -0.028940625 -0.00125 -0.007678125 0.105365879132
174 1 -0.028940625 -0.00125 -0.006496875 0.277980481053
175 1 -0.028940625 -0.00125 -0.005315625 0.263674497482
176 1 -0.028940625 -0.00125 -0.004134375 0.00474645121499
177 1 -0.028940625 -0.00125 -0.002953125 0.0
178 1 -0.028940625 -0.00125 -0.001771875 0.0
179 1 -0.028940625 -0.00125 -0.000590625 0.000375784453599
180 1 -0.028940625 -0.00125 0.000590625 0.165468748191
181 1 -0.028940625 -0.00125 0.001771875 0.123928365601
182 1 -0.028940625 -0.00125 0.002953125 0.091233852548
183 1 -0.028940625 -0.00125 0.004134375 0.091233852548
184 1 -0.028940625 -0.00125 0.005315625 0.0964521350783
185 1 -0.028940625 -0.00125 0.006496875 0.0149103771607
186 1 -0.028940625 -0.00125 0.007678125 0.00668182974929
187 1 -0.028940625 -0.00125 0.008859375 1.74019667629e-11
188 1 -0.028940625 -0.00125 0.010040625 1.74019667629e-11
189 1 -0.028940625 -0.00125 0.011221875 0.000126658700522
190 1 -0.028940625 -0.00125 0.012403125 0.0243767756543
191 1 -0.028940625 -0.00125 0.013584375 0.126789267973
192 1 -0.028940625 -0.00125 0.014765625 0.175758893257
193 1 -0.028940625 -0.00125 0.015946875 0.252716464147
194 1 -0.028940625 -0.00125 0.017128125 0.169569358233
195 1 -0.028940625 -0.00125 0.018309375 0.139391385346
196 1 -0.028940625 -0.00125 0.019490625 0.00154813293271
197 1 -0.028940625 -0.00125 0.020671875 1.18026294841e-10
198 1 -0.028940625 -0.00125 0.021853125 0.00466864259094
199 1 -0.027759375 -0.00125 -0.024215625 0.0
200 1 -0.027759375 -0.00125 -0.023034375 0.0075399670332
201 1 -0.027759375 -0.00125 -0.021853125 1.18026294841e-10
202 1 -0.027759375 -0.00125 -0.020671875 1.74019667629e-11
203 1 -0.027759375 -0.00125 -0.019490625 0.000535659512892
204 1 -0.027759375 -0.00125 -0.018309375 0.00668184101894
205 1 -0.027759375 -0.00125 -0.017128125 0.0138696939255
206 1 -0.027759375 -0.00125 -0.015946875 0.00474645121499
207 1 -0.027759375 -0.00125 -0.014765625 0.0509111013046
208 1 -0.027759375 -0.00125 -0.013584375 0.0138697507376
209 1 -0.027759375 -0.00125 -0.012403125 0.224469737872
210 1 -0.027759375 -0.00125 -0.011221875 0.123928325831
211 1 -0.027759375 -0.00125 -0.010040625 0.00474645121499
212 1 -0.027759375 -0.00125 -0.008859375 0.0622852495443
213 1 -0.027759375 -0.00125 -0.007678125 0.129668570718
214 1 -0.027759375 -0.00125 -0.006496875 0.199868194369
215 1 -0.027759375 -0.00125 -0.005315625 0.40155560828
216 1 -0.027759375 -0.00125 -0.004134375 0.292342717184
217 1 -0.027759375 -0.00125 -0.002953125 0.186171540908
218 1 -0.027759375 -0.00125 -0.001771875 0.186171540908
219 1 -0.027759375 -0.00125 -0.000590625 0.170597721498
220 1 -0.027759375 -0.00125 0.000590625 0.252716967449
221 1 -0.027759375 -0.00125 0.001771875 0.0293069224194
222 1 -0.027759375 -0.00125 0.002953125 4.52220221462e-06
223 1 -0.027759375 -0.00125 0.004134375 0.00154812961495
224 1 -0.027759375 -0.00125 0.005315625 0.0243767952624
225 1 -0.027759375 -0.00125 0.006496875 0.0167442465224
226 1 -0.027759375 -0.00125 0.007678125 0.0622852495443
227 1 -0.027759375 -0.00125 0.008859375 0.0443323240644
228 1 -0.027759375 -0.00125 0.010040625 0.010721438861
229 1 -0.027759375 -0.00125 0.011221875 0.01386971523
230 1 -0.027759375 -0.00125 0.012403125 0.00154812961495
231 1 -0.027759375 -0.00125 0.013584375 0.0364315288618
232 1 -0.027759375 -0.00125 0.014765625 0.292342717184
233 1 -0.027759375 -0.00125 0.015946875 0.321195978177
234 1 -0.027759375 -0.00125 0.017128125 0.31008152194
235 1 -0.027759375 -0.00125 0.018309375 0.235286796702
236 1 -0.027759375 -0.00125 0.019490625 0.00154812961495
237 1 -0.027759375 -0.00125 0.020671875 0.0
238 1 -0.027759375 -0.00125 0.021853125 0.066085934973
239 1 -0.027759375 -0.00125 0.023034375 0.0648941552085
240 1 -0.027759375 -0.00125 0.024215625 0.0
241 1 -0.026578125 -0.00125 -0.026578125 0.0
242 1 -0.026578125 -0.00125 -0.025396875 0.0
243 1 -0.026578125 -0.00125 -0.024215625 0.000178487785899
244 1 -0.026578125 -0.00125 -0.023034375 0.00118682874801
245 1 -0.026578125 -0.00125 -0.021853125 3.07880835211e-05
246 1 -0.026578125 -0.00125 -0.020671875 1.74019667629e-11
247 1 -0.026578125 -0.00125 -0.019490625 2.230321228e-05
248 1 -0.026578125 -0.00125 -0.018309375 0.00855160641309
249 1 -0.026578125 -0.00125 -0.017128125 0.0529663073376
250 1 -0.026578125 -0.00125 -0.015946875 0.164447052173
251 1 -0.026578125 -0.00125 -0.014765625 0.355743098645
252 1 -0.026578125 -0.00125 -0.013584375 0.0300881626714
253 1 -0.026578125 -0.00125 -0.012403125 0.0443322974297
254 1 -0.026578125 -0.00125 -0.011221875 0.277980204193
255 1 -0.026578125 -0.00125 -0.010040625 0.335668776925
256 1 -0.026578125 -0.00125 -0.008859375 0.0443321642567
257 1 -0.026578125 -0.00125 -0.007678125 1.58379826604e-05
258 1 -0.026578125 -0.00125 -0.006496875 2.21249662661e-07
259 1 -0.026578125 -0.00125 -0.005315625 3.07877004318e-05
260 1 -0.026578125 -0.00125 -0.004134375 0.00474644221021
261 1 -0.026578125 -0.00125 -0.002953125 0.0187026608024
262 1 -0.026578125 -0.00125 -0.001771875 0.0267810609157
263 1 -0.026578125 -0.00125 -0.000590625 0.0147338077992
264 1 -0.026578125 -0.00125 0.000590625 0.036431516761
265 1 -0.026578125 -0.00125 0.001771875 0.000299132125684
266 1 -0.026578125 -0.00125 0.002953125 1.74014005978e-11
267 1 -0.026578125 -0.00125 0.004134375 1.74014005978e-11
268 1 -0.026578125 -0.00125 0.005315625 1.28752206004e-08
269 1 -0.026578125 -0.00125 0.006496875 1.10097839223e-07
270 1 -0.026578125 -0.00125 0.007678125 7.6989341285e-05
271 1 -0.026578125 -0.00125 0.008859375 0.00037578707255
272 1 -0.026578125 -0.00125 0.010040625 0.000126657322377
273 1 -0.026578125 -0.00125 0.011221875 3.07879020573e-05
274 1 -0.026578125 -0.00125 0.012403125 3.07878012444e-05
275 1 -0.026578125 -0.00125 0.013584375 0.171112581404
276 1 -0.026578125 -0.00125 0.014765625 0.395964423221
277 1 -0.026578125 -0.00125 0.015946875 0.512306675156
278 1 -0.026578125 -0.00125 0.017128125 0.292342995029
279 1 -0.026578125 -0.00125 0.018309375 0.00987185758727
280 1 -0.026578125 -0.00125 0.019490625 2.71829692303e-12
281 1 -0.026578125 -0.00125 0.020671875 2.79378975481e-22
282 1 -0.026578125 -0.00125 0.021853125 2.79378975481e-22
283 1 -0.026578125 -0.00125 0.023034375 1.5838087899e-05
284 1 -0.026578125 -0.00125 0.024215625 0.0
285 1 -0.026578125 -0.00125 0.025396875 0.0
286 1 -0.026578125 -0.00125 0.026578125 0.0
287 1 -0.025396875 -0.00125 -0.026578125 0.0
288 1 -0.025396875 -0.00125 -0.025396875 0.0
289 1 -0.025396875 -0.00125 -0.024215625 0.000126658700522
290 1 -0.025396875 -0.00125 -0.023034375 0.000126657572948
291 1 -0.025396875 -0.00125 -0.021853125 0.000126658700522
292 1 -0.025396875 -0.00125 -0.020671875 6.01557630165e-07
293 1 -0.025396875 -0.00125 -0.019490625 0.0
294 1 -0.025396875 -0.00125 -0.018309375 0.000126658700522
295 1 -0.025396875 -0.00125 -0.017128125 0.00668182974929
296 1 -0.025396875 -0.00125 -0.015946875 0.000891017573599
297 1 -0.025396875 -0.00125 -0.014765625 0.123928325831
298 1 -0.025396875 -0.00125 -0.013584375 0.123928564454
299 1 -0.025396875 -0.00125 -0.012403125 0.0443322841124
300 1 -0.025396875 -0.00125 -0.011221875 0.39037452881
301 1 -0.025396875 -0.00125 -0.010040625 0.123928325831
302 1 -0.025396875 -0.00125 -0.008859375 4.52220221462e-06
303 1 -0.025396875 -0.00125 -0.007678125 0.0
304 1 -0.025396875 -0.00125 -0.006496875 0.0
305 1 -0.025396875 -0.00125 -0.005315625 0.0
306 1 -0.025396875 -0.00125 -0.004134375 0.0
307 1 -0.025396875 -0.00125 -0.002953125 1.74019667629e-11
308 1 -0.025396875 -0.00125 -0.001771875 0.00154812961495
309 1 -0.025396875 -0.00125 -0.000590625 0.00154812961495
310 1 -0.025396875 -0.00125 0.000590625 3.07879020573e-05
311 1 -0.025396875 -0.00125 0.001771875 0.0
312 1 -0.025396875 -0.00125 0.002953125 0.0
313 1 -0.025396875 -0.00125 0.004134375 0.0
314 1 -0.025396875 -0.00125 0.005315625 0.0
315 1 -0.025396875 -0.00125 0.006496875 0.0
316 1 -0.025396875 -0.00125 0.007678125 0.0
317 1 -0.025396875 -0.00125 0.008859375 0.0
318 1 -0.025396875 -0.00125 0.010040625 0.0
319 1 -0.025396875 -0.00125 0.011221875 0.0
320 1 -0.025396875 -0.00125 0.012403125 0.000126657572948
321 1 -0.025396875 -0.00125 0.013584375 0.107179604771
322 1 -0.025396875 -0.00125 0.014765625 0.39037452881
323 1 -0.025396875 -0.00125 0.015946875 0.372492797347
324 1 -0.025396875 -0.00125 0.017128125 0.0778403180889
325 1 -0.025396875 -0.00125 0.018309375 0.00474645121499
326 1 -0.025396875 -0.00125 0.019490625 2.79378975481e-22
327 1 -0.025396875 -0.00125 0.020671875 0.0
328 1 -0.025396875 -0.00125 0.021853125 0.000126658700522
329 1 -0.025396875 -0.00125 0.023034375 0.000126658700522
330 1 -0.025396875 -0.00125 0.024215625 0.000891023127979
331 1 -0.025396875 -0.00125 0.025396875 0.000126658700522
332 1 -0.025396875 -0.00125 0.026578125 0.00988849376067
333 1 -0.024215625 -0.00125 -0.027759375 0.0
334 1 -0.024215625 -0.00125 -0.026578125 0.0
335 1 -0.024215625 -0.00125 -0.025396875 1.74019667629e-11
336 1 -0.024215625 -0.00125 -0.024215625 6.01557630165e-07
337 1 -0.024215625 -0.00125 -0.023034375 0.000126658700522
338 1 -0.024215625 -0.00125 -0.021853125 0.00474645121499
339 1 -0.024215625 -0.00125 -0.020671875 0.000126658700522
340 1 -0.024215625 -0.00125 -0.019490625 2.79378975481e-22
341 1 -0.024215625 -0.00125 -0.018309375 0.000891023127979
342 1 -0.024215625 -0.00125 -0.017128125 0.000126658700522
343 1 -0.024215625 -0.00125 -0.015946875 0.00154813293271
344 1 -0.024215625 -0.00125 -0.014765625 0.00474645121499
345 1 -0.024215625 -0.00125 -0.013584375 0.306751493137
346 1 -0.024215625 -0.00125 -0.012403125 0.139391385346
347 1 -0.024215625 -0.00125 -0.011221875 0.133535525963
348 1 -0.024215625 -0.00125 -0.010040625 0.00906546363727
349 1 -0.024215625 -0.00125 -0.008859375 0.0
350 1 -0.024215625 -0.00125 -0.007678125 1.74019667629e-11
351 1 -0.024215625 -0.00125 -0.006496875 0.0
352 1 -0.024215625 -0.00125 -0.005315625 0.0
353 1 -0.024215625 -0.00125 -0.004134375 0.0
354 1 -0.024215625 -0.00125 -0.002953125 1.74019667629e-11
355 1 -0.024215625 -0.00125 -0.001771875 0.00154813293271
356 1 -0.024215625 -0.00125 -0.000590625 0.00474645121499
357 1 -0.024215625 -0.00125 0.000590625 0.0529663073376
358 1 -0.024215625 -0.00125 0.001771875 4.42606186288e-05
359 1 -0.024215625 -0.00125 0.002953125 0.000126657572948
360 1 -0.024215625 -0.00125 0.004134375 0.00154812961495
361 1 -0.024215625 -0.00125 0.005315625 0.000299131636816
362 1 -0.024215625 -0.00125 0.006496875 4.52221866893e-06
363 1 -0.024215625 -0.00125 0.007678125 0.000299131636816
364 1 -0.024215625 -0.00125 0.008859375 4.52220221462e-06
365 1 -0.024215625 -0.00125 0.010040625 0.0
366 1 -0.024215625 -0.00125 0.011221875 6.01557630165e-07
367 1 -0.024215625 -0.00125 0.012403125 4.52220221462e-06
368 1 -0.024215625 -0.00125 0.013584375 0.00037578590857
369 1 -0.024215625 -0.00125 0.014765625 0.372493358291
370 1 -0.024215625 -0.00125 0.015946875 0.551464182117
371 1 -0.024215625 -0.00125 0.017128125 0.00474645121499
372 1 -0.024215625 -0.00125 0.018309375 1.74019667629e-11
373 1 -0.024215625 -0.00125 0.019490625 2.79378975481e-22
374 1 -0.024215625 -0.00125 0.020671875 0.000126658700522
375 1 -0.024215625 -0.00125 0.021853125 0.000126658700522
376 1 -0.024215625 -0.00125 0.023034375 0.0138696939255
377 1 -0.024215625 -0.00125 0.024215625 0.00474645121499
378 1 -0.024215625 -0.00125 0.025396875 0.0138696939255
379 1 -0.024215625 -0.00125 0.026578125 0.069727477611
380 1 -0.024215625 -0.00125 0.027759375 0.00920066229086
381 1 -0.023034375 -0.00125 -0.027759375 0.00106278235535
382 1 -0.023034375 -0.00125 -0.026578125 1.28754471296e-08
383 1 -0.023034375 -0.00125 -0.025396875 1.74019667629e-11
384 1 -0.023034375 -0.00125 -0.024215625 1.74019667629e-11
385 1 -0.023034375 -0.00125 -0.023034375 0.00154813293271
386 1 -0.023034375 -0.00125 -0.021853125 0.00154813293271
387 1 -0.023034375 -0.00125 -0.020671875 0.000126658700522
388 1 -0.023034375 -0.00125 -0.019490625 1.28754471296e-08
389 1 -0.023034375 -0.00125 -0.018309375 0.000891023127979
390 1 -0.023034375 -0.00125 -0.017128125 0.0138696939255
391 1 -0.023034375 -0.00125 -0.015946875 0.000126658700522
392 1 -0.023034375 -0.00125 -0.014765625 0.000126658700522
393 1 -0.023034375 -0.00125 -0.013584375 0.335668776925
394 1 -0.023034375 -0.00125 -0.012403125 0.186171540908
395 1 -0.023034375 -0.00125 -0.011221875 0.186171540908
396 1 -0.023034375 -0.00125 -0.010040625 0.00474644221021
397 1 -0.023034375 -0.00125 -0.008859375 1.74019667629e-11
398 1 -0.023034375 -0.00125 -0.007678125 0.0
399 1 -0.023034375 -0.00125 -0.006496875 0.00037578590857
400 1 -0.023034375 -0.00125 -0.005315625 6.01557630165e-07
401 1 -0.023034375 -0.00125 -0.004134375 1.74019667629e-11
402 1 -0.023034375 -0.00125 -0.002953125 0.00322594350264
403 1 -0.023034375 -0.00125 -0.001771875 0.000891017573599
404 1 -0.023034375 -0.00125 -0.000590625 0.091233852548
405 1 -0.023034375 -0.00125 0.000590625 0.339012100871
406 1 -0.023034375 -0.00125 0.001771875 0.0999860491522
407 1 -0.023034375 -0.00125 0.002953125 0.0443322841124
408 1 -0.023034375 -0.00125 0.004134375 0.00668182974929
409 1 -0.023034375 -0.00125 0.005315625 0.000126657572948
410 1 -0.023034375 -0.00125 0.006496875 0.000535657991014
411 1 -0.023034375 -0.00125 0.007678125 0.00154812961495
412 1 -0.023034375 -0.00125 0.008859375 0.00668182974929
413 1 -0.023034375 -0.00125 0.010040625 0.0175125972543
414 1 -0.023034375 -0.00125 0.011221875 0.0138696939255
415 1 -0.023034375 -0.00125 0.012403125 4.52220221462e-06
416 1 -0.023034375 -0.00125 0.013584375 0.0113119039806
417 1 -0.023034375 -0.00125 0.014765625 0.224469737872
418 1 -0.023034375 -0.00125 0.015946875 0.361325055821
419 1 -0.023034375 -0.00125 0.017128125 0.00154813293271
420 1 -0.023034375 -0.00125 0.018309375 6.01557630165e-07
421 1 -0.023034375 -0.00125 0.019490625 2.79378975481e-22
422 1 -0.023034375 -0.00125 0.020671875 0.00154813293271
423 1 -0.023034375 -0.00125 0.021853125 0.0293069007767
424 1 -0.023034375 -0.00125 0.023034375 0.0293069007767
425 1 -0.023034375 -0.00125 0.024215625 0.00154813293271
426 1 -0.023034375 -0.00125 0.025396875 0.00474645121499
427 1 -0.023034375 -0.00125 0.026578125 0.00474645121499
428 1 -0.023034375 -0.00125 0.027759375 0.0075399670332
429 1 -0.021853125 -0.00125 -0.028940625 0.00466864259094
430 1 -0.021853125 -0.00125 -0.027759375 0.207497773677
431 1 -0.021853125 -0.00125 -0.026578125 0.00284458672872
432 1 -0.021853125 -0.00125 -0.025396875 0.00154813293271
433 1 -0.021853125 -0.00125 -0.024215625 0.00154813293271
434 1 -0.021853125 -0.00125 -0.023034375 0.01386971523
435 1 -0.021853125 -0.00125 -0.021853125 0.0138696939255
436 1 -0.021853125 -0.00125 -0.020671875 0.000126658700522
437 1 -0.021853125 -0.00125 -0.019490625 3.07879020573e-05
438 1 -0.021853125 -0.00125 -0.018309375 0.00474645121499
439 1 -0.021853125 -0.00125 -0.017128125 0.0138696939255
440 1 -0.021853125 -0.00125 -0.015946875 0.000126658700522
441 1 -0.021853125 -0.00125 -0.014765625 0.0138696939255
442 1 -0.021853125 -0.00125 -0.013584375 0.312302884052
443 1 -0.021853125 -0.00125 -0.012403125 0.5
444 1 -0.021853125 -0.00125 -0.011221875 0.379197622445
445 1 -0.021853125 -0.00125 -0.010040625 0.0698876476892
446 1 -0.021853125 -0.00125 -0.008859375 6.01557630165e-07
447 1 -0.021853125 -0.00125 -0.007678125 0.000891017573599
448 1 -0.021853125 -0.00125 -0.006496875 0.0430679145911
449 1 -0.021853125 -0.00125 -0.005315625 0.0622852805866
450 1 -0.021853125 -0.00125 -0.004134375 0.0622852805866
451 1 -0.021853125 -0.00125 -0.002953125 0.224469737872
452 1 -0.021853125 -0.00125 -0.001771875 0.252716464147
453 1 -0.021853125 -0.00125 -0.000590625 0.252716464147
454 1 -0.021853125 -0.00125 0.000590625 0.167516386218
455 1 -0.021853125 -0.00125 0.001771875 0.14929428164
456 1 -0.021853125 -0.00125 0.002953125 0.133535038668
457 1 -0.021853125 -0.00125 0.004134375 0.0243767952624
458 1 -0.021853125 -0.00125 0.005315625 0.0509111013046
459 1 -0.021853125 -0.00125 0.006496875 0.0138697507376
460 1 -0.021853125 -0.00125 0.007678125 4.52220221462e-06
461 1 -0.021853125 -0.00125 0.008859375 0.000126657572948
462 1 -0.021853125 -0.00125 0.010040625 0.00668184101894
463 1 -0.021853125 -0.00125 0.011221875 0.00668184101894
464 1 -0.021853125 -0.00125 0.012403125 0.00668182974929
465 1 -0.021853125 -0.00125 0.013584375 0.0375974247866
466 1 -0.021853125 -0.00125 0.014765625 0.303422785529
467 1 -0.021853125 -0.00125 0.015946875 0.292342717184
468 1 -0.021853125 -0.00125 0.017128125 1.74019667629e-11
469 1 -0.021853125 -0.00125 0.018309375 1.74019667629e-11
470 1 -0.021853125 -0.00125 0.019490625 1.5838087899e-05
471 1 -0.021853125 -0.00125 0.020671875 0.00154813293271
472 1 -0.021853125 -0.00125 0.021853125 0.0138696939255
473 1 -0.021853125 -0.00125 0.023034375 0.00154813293271
474 1 -0.021853125 -0.00125 0.024215625 0.00154813293271
475 1 -0.021853125 -0.00125 0.025396875 0.00154813293271
476 1 -0.021853125 -0.00125 0.026578125 0.000255126476125
477 1 -0.021853125 -0.00125 0.027759375 0.010018620329
478 1 -0.021853125 -0.00125 0.028940625 2.52587523623e-07
479 1 -0.020671875 -0.00125 -0.030121875 0.0
480 1 -0.020671875 -0.00125 -0.028940625 0.000245540111831
481 1 -0.020671875 -0.00125 -0.027759375 0.123928325831
482 1 -0.020671875 -0.00125 -0.026578125 0.0085515641959
483 1 -0.020671875 -0.00125 -0.025396875 0.0293069007767
484 1 -0.020671875 -0.00125 -0.024215625 0.0293069007767
485 1 -0.020671875 -0.00125 -0.023034375 0.0509111013046
486 1 -0.020671875 -0.00125 -0.021853125 0.159358746116
487 1 -0.020671875 -0.00125 -0.020671875 0.0293069007767
488 1 -0.020671875 -0.00125 -0.019490625 0.00284458672872
489 1 -0.020671875 -0.00125 -0.018309375 0.0138696939255
490 1 -0.020671875 -0.00125 -0.017128125 0.0138696939255
491 1 -0.020671875 -0.00125 -0.015946875 0.0138696939255
492 1 -0.020671875 -0.00125 -0.014765625 0.0138696939255
493 1 -0.020671875 -0.00125 -0.013584375 0.439585669793
494 1 -0.020671875 -0.00125 -0.012403125 0.649836265644
495 1 -0.020671875 -0.00125 -0.011221875 0.649836732464
496 1 -0.020671875 -0.00125 -0.010040625 0.274673256093
497 1 -0.020671875 -0.00125 -0.008859375 0.0698876476892
498 1 -0.020671875 -0.00125 -0.007678125 0.0199375166154
499 1 -0.020671875 -0.00125 -0.006496875 0.0220952500447
500 1 -0.020671875 -0.00125 -0.005315625 0.114532075754
501 1 -0.020671875 -0.00125 -0.004134375 0.430635859907
502 1 -0.020671875 -0.00125 -0.002953125 0.303422785529
503 1 -0.020671875 -0.00125 -0.001771875 0.372493358291
504 1 -0.020671875 -0.00125 -0.000590625 0.114532075754
505 1 -0.020671875 -0.00125 0.000590625 0.00349873817525
506 1 -0.020671875 -0.00125 0.001771875 0.0107214510125
507 1 -0.020671875 -0.00125 0.002953125 0.350163267536
508 1 -0.020671875 -0.00125 0.004134375 0.292342717184
509 1 -0.020671875 -0.00125 0.005315625 0.390374014268
510 1 -0.020671875 -0.00125 0.006496875 0.243984638945
511 1 -0.020671875 -0.00125 0.007678125 0.159358746116
512 1 -0.020671875 -0.00125 0.008859375 0.123928325831
513 1 -0.020671875 -0.00125 0.010040625 0.159358746116
514 1 -0.020671875 -0.00125 0.011221875 0.123928325831
515 1 -0.020671875 -0.00125 0.012403125 0.224469737872
516 1 -0.020671875 -0.00125 0.013584375 0.258189948267
517 1 -0.020671875 -0.00125 0.014765625 0.620802845142
518 1 -0.020671875 -0.00125 0.015946875 0.224469737872
519 1 -0.020671875 -0.00125 0.017128125 0.000126658700522
520 1 -0.020671875 -0.00125 0.018309375 0.000126658700522
521 1 -0.020671875 -0.00125 0.019490625 0.000535662176186
522 1 -0.020671875 -0.00125 0.020671875 0.0138696939255
523 1 -0.020671875 -0.00125 0.021853125 0.0138696939255
524 1 -0.020671875 -0.00125 0.023034375 0.000126658700522
525 1 -0.020671875 -0.00125 0.024215625 0.00154813293271
526 1 -0.020671875 -0.00125 0.025396875 0.01386971523
527 1 -0.020671875 -0.00125 0.026578125 0.033597418051
528 1 -0.020671875 -0.00125 0.027759375 0.000891017573599
529 1 -0.020671875 -0.00125 0.028940625 1.61610918776e-06
530 1 -0.020671875 -0.00125 0.030121875 0.0
531 1 -0.019490625 -0.00125 -0.031303125 8.50218305249e-07
532 1 -0.019490625 -0.00125 -0.030121875 1.28752206004e-08
533 1 -0.019490625 -0.00125 -0.028940625 0.000535657991014
534 1 -0.019490625 -0.00125 -0.027759375 0.186171278084
535 1 -0.019490625 -0.00125 -0.026578125 0.169055471213
536 1 -0.019490625 -0.00125 -0.025396875 0.10266431786
537 1 -0.019490625 -0.00125 -0.024215625 0.036431516761
538 1 -0.019490625 -0.00125 -0.023034375 0.000535662176186
539 1 -0.019490625 -0.00125 -0.021853125 0.0167442306548
540 1 -0.019490625 -0.00125 -0.020671875 0.191419108408
541 1 -0.019490625 -0.00125 -0.019490625 0.0878127078528