ITEM: TIMESTEP
0
ITEM: NUMBER OF ATOMS
3080
ITEM: BOX BOUNDS ss ss ss
-3.7007399999999996e-02 3.7007399999999996e-02
-2.0002499999999999e-03 2.5000000000000004e-07
-3.7007399999999996e-02 3.7007399999999996e-02
ITEM: ATOMS id type x y z c_1
0 1 -0.037209375 -0.00125 -0.000590625 0.0
1 1 -0.036028125 -0.00125 -0.007678125 0.0
2 1 -0.036028125 -0.00125 -0.006496875 0.0
3 1 -0.036028125 -0.00125 -0.005315625 0.0
4 1 -0.036028125 -0.00125 -0.004134375 0.0
5 1 -0.036028125 -0.00125 -0.002953125 0.0
6 1 -0.036028125 -0.00125 -0.001771875 0.0
7 1 -0.036028125 -0.00125 -0.000590625 0.0
8 1 -0.036028125 -0.00125 0.000590625 0.0
9 1 -0.036028125 -0.00125 0.001771875 0.0
10 1 -0.036028125 -0.00125 0.002953125 0.0
11 1 -0.036028125 -0.00125 0.004134375 0.0
12 1 -0.036028125 -0.00125 0.005315625 0.0
13 1 -0.036028125 -0.00125 0.006496875 0.0
14 1 -0.036028125 -0.00125 0.007678125 0.0
15 1 -0.034846875 -0.00125 -0.011221875 0.0
16 1 -0.034846875 -0.00125 -0.010040625 0.0
17 1 -0.034846875 -0.00125 -0.008859375 0.0
18 1 -0.034846875 -0.00125 -0.007678125 0.0
19 1 -0.034846875 -0.00125 -0.006496875 0.0
20 1 -0.034846875 -0.00125 -0.005315625 0.0
21 1 -0.034846875 -0.00125 -0.004134375 0.0
22 1 -0.034846875 -0.00125 -0.002953125 0.0
23 1 -0.034846875 -0.00125 -0.001771875 0.0
24 1 -0.034846875 -0.00125 -0.000590625 0.0
25 1 -0.034846875 -0.00125 0.000590625 0.0
26 1 -0.034846875 -0.00125 0.001771875 0.0
27 1 -0.034846875 -0.00125 0.002953125 0.0
28 1 -0.034846875 -0.00125 0.004134375 0.0
29 1 -0.034846875 -0.00125 0.005315625 0.0
30 1 -0.034846875 -0.00125 0.006496875 0.0
31 1 -0.034846875 -0.00125 0.007678125 0.0
32 1 -0.034846875 -0.00125 0.008859375 0.0
33 1 -0.034846875 -0.00125 0.010040625 0.0
34 1 -0.034846875 -0.00125 0.011221875 0.0
35 1 -0.033665625 -0.00125 -0.013584375 0.0
36 1 -0.033665625 -0.00125 -0.012403125 0.0
37 1 -0.033665625 -0.00125 -0.011221875 0.0
38 1 -0.033665625 -0.00125 -0.010040625 0.0
39 1 -0.033665625 -0.00125 -0.008859375 0.0
40 1 -0.033665625 -0.00125 -0.007678125 0.0
41 1 -0.033665625 -0.00125 -0.006496875 0.0
42 1 -0.033665625 -0.00125 -0.005315625 0.0
43 1 -0.033665625 -0.00125 -0.004134375 0.0
44 1 -0.033665625 -0.00125 -0.002953125 0.0
45 1 -0.033665625 -0.00125 -0.001771875 0.0
46 1 -0.033665625 -0.00125 -0.000590625 0.0
47 1 -0.033665625 -0.00125 0.000590625 0.0
48 1 -0.033665625 -0.00125 0.001771875 0.0
49 1 -0.033665625 -0.00125 0.002953125 0.0
50 1 -0.033665625 -0.00125 0.004134375 0.0
51 1 -0.033665625 -0.00125 0.005315625 1.74019667629e-11
52 1 -0.033665625 -0.00125 0.006496875 0.0
53 1 -0.033665625 -0.00125 0.007678125 0.0
54 1 -0.033665625 -0.00125 0.008859375 0.0
55 1 -0.033665625 -0.00125 0.010040625 0.0
56 1 -0.033665625 -0.00125 0.011221875 0.0
57 1 -0.033665625 -0.00125 0.012403125 0.0
58 1 -0.033665625 -0.00125 0.013584375 1.7269595626e-06
59 1 -0.032484375 -0.00125 -0.018309375 0.0
60 1 -0.032484375 -0.00125 -0.017128125 0.0
61 1 -0.032484375 -0.00125 -0.015946875 0.0
62 1 -0.032484375 -0.00125 -0.014765625 0.0
63 1 -0.032484375 -0.00125 -0.013584375 0.0
64 1 -0.032484375 -0.00125 -0.012403125 0.0
65 1 -0.032484375 -0.00125 -0.011221875 0.0
66 1 -0.032484375 -0.00125 -0.010040625 0.0
67 1 -0.032484375 -0.00125 -0.008859375 0.0
68 1 -0.032484375 -0.00125 -0.007678125 0.0
69 1 -0.032484375 -0.00125 -0.006496875 7.49709589486e-44
70 1 -0.032484375 -0.00125 -0.005315625 2.79378975481e-22
71 1 -0.032484375 -0.00125 -0.004134375 0.0
72 1 -0.032484375 -0.00125 -0.002953125 0.0
73 1 -0.032484375 -0.00125 -0.001771875 0.0
74 1 -0.032484375 -0.00125 -0.000590625 0.0
75 1 -0.032484375 -0.00125 0.000590625 0.0
76 1 -0.032484375 -0.00125 0.001771875 0.000126657322377
77 1 -0.032484375 -0.00125 0.002953125 0.0207856943371
78 1 -0.032484375 -0.00125 0.004134375 0.0955752819819
79 1 -0.032484375 -0.00125 0.005315625 0.00566001226104
80 1 -0.032484375 -0.00125 0.006496875 7.49709589486e-44
81 1 -0.032484375 -0.00125 0.007678125 0.0
82 1 -0.032484375 -0.00125 0.008859375 0.0
83 1 -0.032484375 -0.00125 0.010040625 0.0
84 1 -0.032484375 -0.00125 0.011221875 0.0
85 1 -0.032484375 -0.00125 0.012403125 0.0
86 1 -0.032484375 -0.00125 0.013584375 0.0
87 1 -0.032484375 -0.00125 0.014765625 2.66892347814e-17
88 1 -0.032484375 -0.00125 0.015946875 0.0
89 1 -0.032484375 -0.00125 0.017128125 2.56737690538e-12
90 1 -0.032484375 -0.00125 0.018309375 0.000455413315469
91 1 -0.031303125 -0.00125 -0.019490625 0.0
92 1 -0.031303125 -0.00125 -0.018309375 0.0
93 1 -0.031303125 -0.00125 -0.017128125 0.0
94 1 -0.031303125 -0.00125 -0.015946875 0.0
95 1 -0.031303125 -0.00125 -0.014765625 0.0
96 1 -0.031303125 -0.00125 -0.013584375 0.0
97 1 -0.031303125 -0.00125 -0.012403125 0.0
98 1 -0.031303125 -0.00125 -0.011221875 0.0
99 1 -0.031303125 -0.00125 -0.010040625 0.0
100 1 -0.031303125 -0.00125 -0.008859375 0.0
101 1 -0.031303125 -0.00125 -0.007678125 1.74019667629e-11
102 1 -0.031303125 -0.00125 -0.006496875 0.000535659512892
103 1 -0.031303125 -0.00125 -0.005315625 0.000126657572948
104 1 -0.031303125 -0.00125 -0.004134375 1.74019667629e-11
105 1 -0.031303125 -0.00125 -0.002953125 0.0
106 1 -0.031303125 -0.00125 -0.001771875 0.0
107 1 -0.031303125 -0.00125 -0.000590625 2.79378975481e-22
108 1 -0.031303125 -0.00125 0.000590625 0.000891023127979
109 1 -0.031303125 -0.00125 0.001771875 0.0778403180889
110 1 -0.031303125 -0.00125 0.002953125 0.0912339065983
111 1 -0.031303125 -0.00125 0.004134375 0.580550471812
112 1 -0.031303125 -0.00125 0.005315625 0.263674497482
113 1 -0.031303125 -0.00125 0.006496875 0.000299132125684
114 1 -0.031303125 -0.00125 0.007678125 0.0
115 1 -0.031303125 -0.00125 0.008859375 0.0
116 1 -0.031303125 -0.00125 0.010040625 0.0
117 1 -0.031303125 -0.00125 0.011221875 0.0
118 1 -0.031303125 -0.00125 0.012403125 0.0
119 1 -0.031303125 -0.00125 0.013584375 0.0
120 1 -0.031303125 -0.00125 0.014765625 0.0
121 1 -0.031303125 -0.00125 0.015946875 0.0
122 1 -0.031303125 -0.00125 0.017128125 0.0
123 1 -0.031303125 -0.00125 0.018309375 0.000245543891342
124 1 -0.031303125 -0.00125 0.019490625 8.50218305249e-07
125 1 -0.030121875 -0.00125 -0.020671875 0.0
126 1 -0.030121875 -0.00125 -0.019490625 0.0
127 1 -0.030121875 -0.00125 -0.018309375 0.0
128 1 -0.030121875 -0.00125 -0.017128125 0.0
129 1 -0.030121875 -0.00125 -0.015946875 0.0
130 1 -0.030121875 -0.00125 -0.014765625 0.0
131 1 -0.030121875 -0.00125 -0.013584375 0.0
132 1 -0.030121875 -0.00125 -0.012403125 0.0
133 1 -0.030121875 -0.00125 -0.011221875 0.0
134 1 -0.030121875 -0.00125 -0.010040625 0.0
135 1 -0.030121875 -0.00125 -0.008859375 1.74019667629e-11
136 1 -0.030121875 -0.00125 -0.007678125 6.01557630165e-07
137 1 -0.030121875 -0.00125 -0.006496875 0.0085515641959
138 1 -0.030121875 -0.00125 -0.005315625 0.00474645121499
139 1 -0.030121875 -0.00125 -0.004134375 1.22156214432e-15
140 1 -0.030121875 -0.00125 -0.002953125 0.0
141 1 -0.030121875 -0.00125 -0.001771875 0.0
142 1 -0.030121875 -0.00125 -0.000590625 1.77729209249e-06
143 1 -0.030121875 -0.00125 0.000590625 0.0293069224194
144 1 -0.030121875 -0.00125 0.001771875 0.0138696939255
145 1 -0.030121875 -0.00125 0.002953125 0.0999860491522
146 1 -0.030121875 -0.00125 0.004134375 0.587261144554
147 1 -0.030121875 -0.00125 0.005315625 0.441823107051
148 1 -0.030121875 -0.00125 0.006496875 0.0138697081285
149 1 -0.030121875 -0.00125 0.007678125 4.52227625942e-06
150 1 -0.030121875 -0.00125 0.008859375 0.0
151 1 -0.030121875 -0.00125 0.010040625 0.0
152 1 -0.030121875 -0.00125 0.011221875 0.0
153 1 -0.030121875 -0.00125 0.012403125 0.0
154 1 -0.030121875 -0.00125 0.013584375 0.0
155 1 -0.030121875 -0.00125 0.014765625 0.0
156 1 -0.030121875 -0.00125 0.015946875 0.0
157 1 -0.030121875 -0.00125 0.017128125 0.0
158 1 -0.030121875 -0.00125 0.018309375 0.0
159 1 -0.030121875 -0.00125 0.019490625 2.79378975481e-22
160 1 -0.030121875 -0.00125 0.020671875 0.0
161 1 -0.028940625 -0.00125 -0.021853125 0.0
162 1 -0.028940625 -0.00125 -0.020671875 0.0
163 1 -0.028940625 -0.00125 -0.019490625 0.0
164 1 -0.028940625 -0.00125 -0.018309375 0.0
165 1 -0.028940625 -0.00125 -0.017128125 0.0
166 1 -0.028940625 -0.00125 -0.015946875 0.0
167 1 -0.028940625 -0.00125 -0.014765625 0.0
168 1 -0.028940625 -0.00125 -0.013584375 0.0
169 1 -0.028940625 -0.00125 -0.012403125 0.0
170 1 -0.028940625 -0.00125 -0.011221875 0.0
171 1 -0.028940625 -0.00125 -0.010040625 0.0
172 1 -0.028940625 -0.00125 -0.008859375 0.0
173 1 -0.028940625 -0.00125 -0.007678125 0.0
174 1 -0.028940625 -0.00125 -0.006496875 0.00154813127383
175 1 -0.028940625 -0.00125 -0.005315625 0.0107214510125
176 1 -0.028940625 -0.00125 -0.004134375 0.000126658700522
177 1 -0.028940625 -0.00125 -0.002953125 6.01557630165e-07
178 1 -0.028940625 -0.00125 -0.001771875 0.0
179 1 -0.028940625 -0.00125 -0.000590625 7.02309649834e-08
180 1 -0.028940625 -0.00125 0.000590625 0.0509111013046
181 1 -0.028940625 -0.00125 0.001771875 0.0443322841124
182 1 -0.028940625 -0.00125 0.002953125 0.10900325236
183 1 -0.028940625 -0.00125 0.004134375 0.281290216208
184 1 -0.028940625 -0.00125 0.005315625 0.649836732464
185 1 -0.028940625 -0.00125 0.006496875 0.0229930266456
186 1 -0.028940625 -0.00125 0.007678125 1.74019667629e-11
187 1 -0.028940625 -0.00125 0.008859375 1.74019667629e-11
188 1 -0.028940625 -0.00125 0.010040625 0.0
189 1 -0.028940625 -0.00125 0.011221875 0.0
190 1 -0.028940625 -0.00125 0.012403125 0.0
191 1 -0.028940625 -0.00125 0.013584375 0.0
192 1 -0.028940625 -0.00125 0.014765625 0.0
193 1 -0.028940625 -0.00125 0.015946875 0.0
194 1 -0.028940625 -0.00125 0.017128125 0.0
195 1 -0.028940625 -0.00125 0.018309375 0.0
196 1 -0.028940625 -0.00125 0.019490625 0.0
197 1 -0.028940625 -0.00125 0.020671875 0.000245540111831
198 1 -0.028940625 -0.00125 0.021853125 0.00466864259094
199 1 -0.027759375 -0.00125 -0.024215625 0.0
200 1 -0.027759375 -0.00125 -0.023034375 0.0
201 1 -0.027759375 -0.00125 -0.021853125 0.0
202 1 -0.027759375 -0.00125 -0.020671875 0.0
203 1 -0.027759375 -0.00125 -0.019490625 0.0
204 1 -0.027759375 -0.00125 -0.018309375 0.0
205 1 -0.027759375 -0.00125 -0.017128125 0.0
206 1 -0.027759375 -0.00125 -0.015946875 0.0
207 1 -0.027759375 -0.00125 -0.014765625 0.0
208 1 -0.027759375 -0.00125 -0.013584375 0.0
209 1 -0.027759375 -0.00125 -0.012403125 0.0
210 1 -0.027759375 -0.00125 -0.011221875 1.74019667629e-11
211 1 -0.027759375 -0.00125 -0.010040625 1.74019667629e-11
212 1 -0.027759375 -0.00125 -0.008859375 0.0
213 1 -0.027759375 -0.00125 -0.007678125 0.0
214 1 -0.027759375 -0.00125 -0.006496875 6.01557630165e-07
215 1 -0.027759375 -0.00125 -0.005315625 0.0293069224194
216 1 -0.027759375 -0.00125 -0.004134375 0.0443322841124
217 1 -0.027759375 -0.00125 -0.002953125 0.00154813293271
218 1 -0.027759375 -0.00125 -0.001771875 0.00154813293271
219 1 -0.027759375 -0.00125 -0.000590625 0.000126658700522
220 1 -0.027759375 -0.00125 0.000590625 0.159358746116
221 1 -0.027759375 -0.00125 0.001771875 0.224469737872
222 1 -0.027759375 -0.00125 0.002953125 0.252716464147
223 1 -0.027759375 -0.00125 0.004134375 0.321195978177
224 1 -0.027759375 -0.00125 0.005315625 0.792690361691
225 1 -0.027759375 -0.00125 0.006496875 0.128706608072
226 1 -0.027759375 -0.00125 0.007678125 4.52220221462e-06
227 1 -0.027759375 -0.00125 0.008859375 0.000299131636816
228 1 -0.027759375 -0.00125 0.010040625 0.000126657572948
229 1 -0.027759375 -0.00125 0.011221875 0.00154812961495
230 1 -0.027759375 -0.00125 0.012403125 0.0443322841124
231 1 -0.027759375 -0.00125 0.013584375 1.77731074088e-06
232 1 -0.027759375 -0.00125 0.014765625 0.0
233 1 -0.027759375 -0.00125 0.015946875 0.0
234 1 -0.027759375 -0.00125 0.017128125 0.0
235 1 -0.027759375 -0.00125 0.018309375 0.0
236 1 -0.027759375 -0.00125 0.019490625 1.74019667629e-11
237 1 -0.027759375 -0.00125 0.020671875 0.0443322841124
238 1 -0.027759375 -0.00125 0.021853125 0.515400102586
239 1 -0.027759375 -0.00125 0.023034375 0.261542344298
240 1 -0.027759375 -0.00125 0.024215625 0.0505238460299
241 1 -0.026578125 -0.00125 -0.026578125 0.0
242 1 -0.026578125 -0.00125 -0.025396875 0.0
243 1 -0.026578125 -0.00125 -0.024215625 0.0
244 1 -0.026578125 -0.00125 -0.023034375 0.0
245 1 -0.026578125 -0.00125 -0.021853125 0.0
246 1 -0.026578125 -0.00125 -0.020671875 0.0
247 1 -0.026578125 -0.00125 -0.019490625 0.0
248 1 -0.026578125 -0.00125 -0.018309375 0.0
249 1 -0.026578125 -0.00125 -0.017128125 0.0
250 1 -0.026578125 -0.00125 -0.015946875 0.0
251 1 -0.026578125 -0.00125 -0.014765625 0.0
252 1 -0.026578125 -0.00125 -0.013584375 0.0
253 1 -0.026578125 -0.00125 -0.012403125 2.79378975481e-22
254 1 -0.026578125 -0.00125 -0.011221875 0.0138696939255
255 1 -0.026578125 -0.00125 -0.010040625 0.0364314683579
256 1 -0.026578125 -0.00125 -0.008859375 0.00284459563651
257 1 -0.026578125 -0.00125 -0.007678125 1.28754471296e-08
258 1 -0.026578125 -0.00125 -0.006496875 3.79111685192e-06
259 1 -0.026578125 -0.00125 -0.005315625 0.0267810609157
260 1 -0.026578125 -0.00125 -0.004134375 0.0364315046602
261 1 -0.026578125 -0.00125 -0.002953125 0.0207856853608
262 1 -0.026578125 -0.00125 -0.001771875 0.0207856853608
263 1 -0.026578125 -0.00125 -0.000590625 0.00919688339224
264 1 -0.026578125 -0.00125 0.000590625 0.0475687660223
265 1 -0.026578125 -0.00125 0.001771875 0.154307352577
266 1 -0.026578125 -0.00125 0.002953125 0.0443322441605
267 1 -0.026578125 -0.00125 0.004134375 0.104463086541
268 1 -0.026578125 -0.00125 0.005315625 0.474267493691
269 1 -0.026578125 -0.00125 0.006496875 0.167516386218
270 1 -0.026578125 -0.00125 0.007678125 0.0982137222786
271 1 -0.026578125 -0.00125 0.008859375 0.0683383695552
272 1 -0.026578125 -0.00125 0.010040625 0.208376116436
273 1 -0.026578125 -0.00125 0.011221875 0.21372123369
274 1 -0.026578125 -0.00125 0.012403125 0.275775596603
275 1 -0.026578125 -0.00125 0.013584375 0.450773139392
276 1 -0.026578125 -0.00125 0.014765625 0.10266435538
277 1 -0.026578125 -0.00125 0.015946875 0.000126656946521
278 1 -0.026578125 -0.00125 0.017128125 1.77729209249e-06
279 1 -0.026578125 -0.00125 0.018309375 1.28752206004e-08
280 1 -0.026578125 -0.00125 0.019490625 0.130150074874
281 1 -0.026578125 -0.00125 0.020671875 0.566008515205
282 1 -0.026578125 -0.00125 0.021853125 0.660987899129
283 1 -0.026578125 -0.00125 0.023034375 0.119202686097
284 1 -0.026578125 -0.00125 0.024215625 0.00994513472828
285 1 -0.026578125 -0.00125 0.025396875 0.123042757103
286 1 -0.026578125 -0.00125 0.026578125 0.494049832342
287 1 -0.025396875 -0.00125 -0.026578125 0.0
288 1 -0.025396875 -0.00125 -0.025396875 0.0
289 1 -0.025396875 -0.00125 -0.024215625 0.0
290 1 -0.025396875 -0.00125 -0.023034375 0.0
291 1 -0.025396875 -0.00125 -0.021853125 0.0
292 1 -0.025396875 -0.00125 -0.020671875 0.0
293 1 -0.025396875 -0.00125 -0.019490625 0.0
294 1 -0.025396875 -0.00125 -0.018309375 0.0
295 1 -0.025396875 -0.00125 -0.017128125 0.0
296 1 -0.025396875 -0.00125 -0.015946875 0.0
297 1 -0.025396875 -0.00125 -0.014765625 0.0
298 1 -0.025396875 -0.00125 -0.013584375 0.0
299 1 -0.025396875 -0.00125 -0.012403125 6.01557630165e-07
300 1 -0.025396875 -0.00125 -0.011221875 0.114532075754
301 1 -0.025396875 -0.00125 -0.010040625 0.303422785529
302 1 -0.025396875 -0.00125 -0.008859375 0.321195978177
303 1 -0.025396875 -0.00125 -0.007678125 0.0999860491522
304 1 -0.025396875 -0.00125 -0.006496875 0.095575355231
305 1 -0.025396875 -0.00125 -0.005315625 0.0698876476892
306 1 -0.025396875 -0.00125 -0.004134375 0.0175125891118
307 1 -0.025396875 -0.00125 -0.002953125 0.0293069007767
308 1 -0.025396875 -0.00125 -0.001771875 0.0138696939255
309 1 -0.025396875 -0.00125 -0.000590625 0.0138696939255
310 1 -0.025396875 -0.00125 0.000590625 0.0698876476892
311 1 -0.025396875 -0.00125 0.001771875 0.091233852548
312 1 -0.025396875 -0.00125 0.002953125 0.0107214510125
313 1 -0.025396875 -0.00125 0.004134375 0.01386971523
314 1 -0.025396875 -0.00125 0.005315625 0.430635859907
315 1 -0.025396875 -0.00125 0.006496875 0.32898640085
316 1 -0.025396875 -0.00125 0.007678125 0.0243767756543
317 1 -0.025396875 -0.00125 0.008859375 0.0698876476892
318 1 -0.025396875 -0.00125 0.010040625 0.511187741896
319 1 -0.025396875 -0.00125 0.011221875 0.419450043018
320 1 -0.025396875 -0.00125 0.012403125 0.303422785529
321 1 -0.025396875 -0.00125 0.013584375 0.502237585867
322 1 -0.025396875 -0.00125 0.014765625 0.678804021823
323 1 -0.025396875 -0.00125 0.015946875 0.5
324 1 -0.025396875 -0.00125 0.017128125 0.0381872278205
325 1 -0.025396875 -0.00125 0.018309375 0.0622852495443
326 1 -0.025396875 -0.00125 0.019490625 0.167516386218
327 1 -0.025396875 -0.00125 0.020671875 0.252716464147
328 1 -0.025396875 -0.00125 0.021853125 0.314525490432
329 1 -0.025396875 -0.00125 0.023034375 0.287918627825
330 1 -0.025396875 -0.00125 0.024215625 0.0293069224194
331 1 -0.025396875 -0.00125 0.025396875 0.21372123369
332 1 -0.025396875 -0.00125 0.026578125 0.428893834691
333 1 -0.024215625 -0.00125 -0.027759375 0.0
334 1 -0.024215625 -0.00125 -0.026578125 0.0
335 1 -0.024215625 -0.00125 -0.025396875 0.0
336 1 -0.024215625 -0.00125 -0.024215625 0.0
337 1 -0.024215625 -0.00125 -0.023034375 0.0
338 1 -0.024215625 -0.00125 -0.021853125 0.0
339 1 -0.024215625 -0.00125 -0.020671875 0.0
340 1 -0.024215625 -0.00125 -0.019490625 0.0
341 1 -0.024215625 -0.00125 -0.018309375 0.0
342 1 -0.024215625 -0.00125 -0.017128125 0.0
343 1 -0.024215625 -0.00125 -0.015946875 0.0
344 1 -0.024215625 -0.00125 -0.014765625 0.0
345 1 -0.024215625 -0.00125 -0.013584375 0.0
346 1 -0.024215625 -0.00125 -0.012403125 0.000299132858986
347 1 -0.024215625 -0.00125 -0.011221875 0.01386971523
348 1 -0.024215625 -0.00125 -0.010040625 0.224469737872
349 1 -0.024215625 -0.00125 -0.008859375 0.339012100871
350 1 -0.024215625 -0.00125 -0.007678125 0.332326556717
351 1 -0.024215625 -0.00125 -0.006496875 0.31785993773
352 1 -0.024215625 -0.00125 -0.005315625 0.196692230435
353 1 -0.024215625 -0.00125 -0.004134375 0.091233852548
354 1 -0.024215625 -0.00125 -0.002953125 0.0698876476892
355 1 -0.024215625 -0.00125 -0.001771875 0.0138696939255
356 1 -0.024215625 -0.00125 -0.000590625 0.0443322841124
357 1 -0.024215625 -0.00125 0.000590625 0.0698876476892
358 1 -0.024215625 -0.00125 0.001771875 0.263674497482
359 1 -0.024215625 -0.00125 0.002953125 0.123928325831
360 1 -0.024215625 -0.00125 0.004134375 0.114532075754
361 1 -0.024215625 -0.00125 0.005315625 0.569364093285
362 1 -0.024215625 -0.00125 0.006496875 0.453010380117
363 1 -0.024215625 -0.00125 0.007678125 0.00249557865471
364 1 -0.024215625 -0.00125 0.008859375 0.0778403011007
365 1 -0.024215625 -0.00125 0.010040625 0.430635859907
366 1 -0.024215625 -0.00125 0.011221875 0.580550471812
367 1 -0.024215625 -0.00125 0.012403125 0.412738808647
368 1 -0.024215625 -0.00125 0.013584375 0.467554949702
369 1 -0.024215625 -0.00125 0.014765625 0.464198969846
370 1 -0.024215625 -0.00125 0.015946875 0.758193091305
371 1 -0.024215625 -0.00125 0.017128125 0.718709829977
372 1 -0.024215625 -0.00125 0.018309375 0.459722771872
373 1 -0.024215625 -0.00125 0.019490625 0.0495617729165
374 1 -0.024215625 -0.00125 0.020671875 0.00668182974929
375 1 -0.024215625 -0.00125 0.021853125 0.00474645121499
376 1 -0.024215625 -0.00125 0.023034375 0.00474645121499
377 1 -0.024215625 -0.00125 0.024215625 0.0381872278205
378 1 -0.024215625 -0.00125 0.025396875 0.631974825117
379 1 -0.024215625 -0.00125 0.026578125 0.383733699223
380 1 -0.024215625 -0.00125 0.027759375 0.0154732620181
381 1 -0.023034375 -0.00125 -0.027759375 0.0
382 1 -0.023034375 -0.00125 -0.026578125 0.0
383 1 -0.023034375 -0.00125 -0.025396875 0.0
384 1 -0.023034375 -0.00125 -0.024215625 0.0
385 1 -0.023034375 -0.00125 -0.023034375 0.0
386 1 -0.023034375 -0.00125 -0.021853125 0.0
387 1 -0.023034375 -0.00125 -0.020671875 0.0
388 1 -0.023034375 -0.00125 -0.019490625 0.0
389 1 -0.023034375 -0.00125 -0.018309375 0.0
390 1 -0.023034375 -0.00125 -0.017128125 0.0
391 1 -0.023034375 -0.00125 -0.015946875 0.0
392 1 -0.023034375 -0.00125 -0.014765625 0.0
393 1 -0.023034375 -0.00125 -0.013584375 2.79378975481e-22
394 1 -0.023034375 -0.00125 -0.012403125 0.000126657572948
395 1 -0.023034375 -0.00125 -0.011221875 0.0509111013046
396 1 -0.023034375 -0.00125 -0.010040625 0.281290170023
397 1 -0.023034375 -0.00125 -0.008859375 0.169569401239
398 1 -0.023034375 -0.00125 -0.007678125 0.0107214510125
399 1 -0.023034375 -0.00125 -0.006496875 0.151294828347
400 1 -0.023034375 -0.00125 -0.005315625 0.224469737872
401 1 -0.023034375 -0.00125 -0.004134375 0.281290216208
402 1 -0.023034375 -0.00125 -0.002953125 0.263674497482
403 1 -0.023034375 -0.00125 -0.001771875 0.0999860491522
404 1 -0.023034375 -0.00125 -0.000590625 0.0475687660223
405 1 -0.023034375 -0.00125 0.000590625 0.123928325831
406 1 -0.023034375 -0.00125 0.001771875 0.263675002831
407 1 -0.023034375 -0.00125 0.002953125 0.224469737872
408 1 -0.023034375 -0.00125 0.004134375 0.224469737872
409 1 -0.023034375 -0.00125 0.005315625 0.540277181315
410 1 -0.023034375 -0.00125 0.006496875 0.684363504457
411 1 -0.023034375 -0.00125 0.007678125 0.186171540908
412 1 -0.023034375 -0.00125 0.008859375 0.310081568404
413 1 -0.023034375 -0.00125 0.010040625 0.482099736343
414 1 -0.023034375 -0.00125 0.011221875 0.555939153577
415 1 -0.023034375 -0.00125 0.012403125 0.235286796702
416 1 -0.023034375 -0.00125 0.013584375 0.243984638945
417 1 -0.023034375 -0.00125 0.014765625 0.20730968292
418 1 -0.023034375 -0.00125 0.015946875 0.354627131557
419 1 -0.023034375 -0.00125 0.017128125 0.68991847806
420 1 -0.023034375 -0.00125 0.018309375 0.758193091305
421 1 -0.023034375 -0.00125 0.019490625 0.375844969653
422 1 -0.023034375 -0.00125 0.020671875 0.292342717184
423 1 -0.023034375 -0.00125 0.021853125 0.175758893257
424 1 -0.023034375 -0.00125 0.023034375 0.186171540908
425 1 -0.023034375 -0.00125 0.024215625 0.321195978177
426 1 -0.023034375 -0.00125 0.025396875 0.775530217004
427 1 -0.023034375 -0.00125 0.026578125 0.283498880915
428 1 -0.023034375 -0.00125 0.027759375 0.0418564289367
429 1 -0.021853125 -0.00125 -0.028940625 0.0
430 1 -0.021853125 -0.00125 -0.027759375 0.0
431 1 -0.021853125 -0.00125 -0.026578125 0.0
432 1 -0.021853125 -0.00125 -0.025396875 0.0
433 1 -0.021853125 -0.00125 -0.024215625 0.0
434 1 -0.021853125 -0.00125 -0.023034375 0.0
435 1 -0.021853125 -0.00125 -0.021853125 0.0
436 1 -0.021853125 -0.00125 -0.020671875 0.0
437 1 -0.021853125 -0.00125 -0.019490625 0.0
438 1 -0.021853125 -0.00125 -0.018309375 0.0
439 1 -0.021853125 -0.00125 -0.017128125 0.0
440 1 -0.021853125 -0.00125 -0.015946875 0.0
441 1 -0.021853125 -0.00125 -0.014765625 0.0
442 1 -0.021853125 -0.00125 -0.013584375 2.79378975481e-22
443 1 -0.021853125 -0.00125 -0.012403125 0.00154812961495
444 1 -0.021853125 -0.00125 -0.011221875 0.123928365601
445 1 -0.021853125 -0.00125 -0.010040625 0.123928325831
446 1 -0.021853125 -0.00125 -0.008859375 0.00668182974929
447 1 -0.021853125 -0.00125 -0.007678125 0.00668184101894
448 1 -0.021853125 -0.00125 -0.006496875 0.00474644581212
449 1 -0.021853125 -0.00125 -0.005315625 0.196692230435
450 1 -0.021853125 -0.00125 -0.004134375 0.361325055821
451 1 -0.021853125 -0.00125 -0.002953125 0.649836265644
452 1 -0.021853125 -0.00125 -0.001771875 0.412738808647
453 1 -0.021853125 -0.00125 -0.000590625 0.0600766491627
454 1 -0.021853125 -0.00125 0.000590625 0.0999860491522
455 1 -0.021853125 -0.00125 0.001771875 0.159358746116
456 1 -0.021853125 -0.00125 0.002953125 0.123928325831
457 1 -0.021853125 -0.00125 0.004134375 0.0999860491522
458 1 -0.021853125 -0.00125 0.005315625 0.40155560828
459 1 -0.021853125 -0.00125 0.006496875 0.915561052652
460 1 -0.021853125 -0.00125 0.007678125 0.876071634399
461 1 -0.021853125 -0.00125 0.008859375 0.40155560828
462 1 -0.021853125 -0.00125 0.010040625 0.0509111013046
463 1 -0.021853125 -0.00125 0.011221875 0.00668184101894
464 1 -0.021853125 -0.00125 0.012403125 0.00154813293271
465 1 -0.021853125 -0.00125 0.013584375 0.116393612657
466 1 -0.021853125 -0.00125 0.014765625 0.0579026359482
467 1 -0.021853125 -0.00125 0.015946875 0.0999860491522
468 1 -0.021853125 -0.00125 0.017128125 0.235286796702
469 1 -0.021853125 -0.00125 0.018309375 0.263674497482
470 1 -0.021853125 -0.00125 0.019490625 0.229870206493
471 1 -0.021853125 -0.00125 0.020671875 0.441823153862
472 1 -0.021853125 -0.00125 0.021853125 0.569364093285
473 1 -0.021853125 -0.00125 0.023034375 0.580549910179
474 1 -0.021853125 -0.00125 0.024215625 0.937714781498
475 1 -0.021853125 -0.00125 0.025396875 0.769047847884
476 1 -0.021853125 -0.00125 0.026578125 0.427280082361
477 1 -0.021853125 -0.00125 0.027759375 0.21978261552
478 1 -0.021853125 -0.00125 0.028940625 0.0160293155099
479 1 -0.020671875 -0.00125 -0.030121875 0.0
480 1 -0.020671875 -0.00125 -0.028940625 0.0
481 1 -0.020671875 -0.00125 -0.027759375 0.0
482 1 -0.020671875 -0.00125 -0.026578125 0.0
483 1 -0.020671875 -0.00125 -0.025396875 0.0
484 1 -0.020671875 -0.00125 -0.024215625 0.0
485 1 -0.020671875 -0.00125 -0.023034375 0.0
486 1 -0.020671875 -0.00125 -0.021853125 0.0
487 1 -0.020671875 -0.00125 -0.020671875 0.0
488 1 -0.020671875 -0.00125 -0.019490625 0.0
489 1 -0.020671875 -0.00125 -0.018309375 0.0
490 1 -0.020671875 -0.00125 -0.017128125 0.0
491 1 -0.020671875 -0.00125 -0.015946875 0.0
492 1 -0.020671875 -0.00125 -0.014765625 0.0
493 1 -0.020671875 -0.00125 -0.013584375 2.79378975481e-22
494 1 -0.020671875 -0.00125 -0.012403125 0.00474644221021
495 1 -0.020671875 -0.00125 -0.011221875 0.123928325831
496 1 -0.020671875 -0.00125 -0.010040625 0.0293069224194
497 1 -0.020671875 -0.00125 -0.008859375 4.52227625942e-06
498 1 -0.020671875 -0.00125 -0.007678125 4.52220221462e-06
499 1 -0.020671875 -0.00125 -0.006496875 0.00393677167671
500 1 -0.020671875 -0.00125 -0.005315625 0.114532114604
501 1 -0.020671875 -0.00125 -0.004134375 0.224469737872
502 1 -0.020671875 -0.00125 -0.002953125 0.332326556717
503 1 -0.020671875 -0.00125 -0.001771875 0.678804021823
504 1 -0.020671875 -0.00125 -0.000590625 0.352395273755
505 1 -0.020671875 -0.00125 0.000590625 0.0698876476892
506 1 -0.020671875 -0.00125 0.001771875 0.159358746116
507 1 -0.020671875 -0.00125 0.002953125 0.091233852548
508 1 -0.020671875 -0.00125 0.004134375 0.133535038668
509 1 -0.020671875 -0.00125 0.005315625 0.133535038668
510 1 -0.020671875 -0.00125 0.006496875 0.724224403397
511 1 -0.020671875 -0.00125 0.007678125 0.813828459092
512 1 -0.020671875 -0.00125 0.008859375 0.0443322841124
513 1 -0.020671875 -0.00125 0.010040625 0.000891023127979
514 1 -0.020671875 -0.00125 0.011221875 0.0
515 1 -0.020671875 -0.00125 0.012403125 1.74019667629e-11
516 1 -0.020671875 -0.00125 0.013584375 0.000198679956635
517 1 -0.020671875 -0.00125 0.014765625 0.00154812961495
518 1 -0.020671875 -0.00125 0.015946875 0.196692716986
519 1 -0.020671875 -0.00125 0.017128125 0.350163781038
520 1 -0.020671875 -0.00125 0.018309375 0.0381872278205
521 1 -0.020671875 -0.00125 0.019490625 0.000299132125684
522 1 -0.020671875 -0.00125 0.020671875 0.000891017573599
523 1 -0.020671875 -0.00125 0.021853125 0.0443323240644
524 1 -0.020671875 -0.00125 0.023034375 0.159358746116
525 1 -0.020671875 -0.00125 0.024215625 0.482099221396
526 1 -0.020671875 -0.00125 0.025396875 0.840641253884
527 1 -0.020671875 -0.00125 0.026578125 0.456366823398
528 1 -0.020671875 -0.00125 0.027759375 0.14929428164
529 1 -0.020671875 -0.00125 0.028940625 0.019545473199
530 1 -0.020671875 -0.00125 0.030121875 0.0771403993442
531 1 -0.019490625 -0.00125 -0.031303125 0.0
532 1 -0.019490625 -0.00125 -0.030121875 0.0
533 1 -0.019490625 -0.00125 -0.028940625 0.0
534 1 -0.019490625 -0.00125 -0.027759375 0.0
535 1 -0.019490625 -0.00125 -0.026578125 0.0
536 1 -0.019490625 -0.00125 -0.025396875 0.0
537 1 -0.019490625 -0.00125 -0.024215625 0.0
538 1 -0.019490625 -0.00125 -0.023034375 0.0
539 1 -0.019490625 -0.00125 -0.021853125 0.0
540 1 -0.019490625 -0.00125 -0.020671875 0.0
541 1 -0.019490625 -0.00125 -0.019490625 0.0
542 1 -0.019490625 -0.00125 -0.018309375 0.0
543 1 -0.019490625 -0.00125 -0.017128125 0.0
544 1 -0.019490625 -0.00125 -0.015946875 0.0
545 1 -0.019490625 -0.00125 -0.014765625 0.0
546 1 -0.019490625 -0.00125 -0.013584375 2.52914849504e-09
547 1 -0.019490625 -0.00125 -0.012403125 0.0085515641959
548 1 -0.019490625 -0.00125 -0.011221875 0.0085515641959
549 1 -0.019490625 -0.00125 -0.010040625 0.000535662176186
550 1 -0.019490625 -0.00125 -0.008859375 0.0
551 1 -0.019490625 -0.00125 -0.007678125 0.0
552 1 -0.019490625 -0.00125 -0.006496875 2.79378975481e-22
553 1 -0.019490625 -0.00125 -0.005315625 6.0154364058e-07
554 1 -0.019490625 -0.00125 -0.004134375 0.00089101923991
555 1 -0.019490625 -0.00125 -0.002953125 0.000126657322377
556 1 -0.019490625 -0.00125 -0.001771875 0.036431516761
557 1 -0.019490625 -0.00125 -0.000590625 0.476505215595
558 1 -0.019490625 -0.00125 0.000590625 0.346817124959
559 1 -0.019490625 -0.00125 0.001771875 0.141358161149
560 1 -0.019490625 -0.00125 0.002953125 0.0564723182317
561 1 -0.019490625 -0.00125 0.004134375 0.0698876476892
562 1 -0.019490625 -0.00125 0.005315625 0.0778403180889
563 1 -0.019490625 -0.00125 0.006496875 0.15935900069
564 1 -0.019490625 -0.00125 0.007678125 0.713186904627
565 1 -0.019490625 -0.00125 0.008859375 0.508950156154
566 1 -0.019490625 -0.00125 0.010040625 0.227708483765
567 1 -0.019490625 -0.00125 0.011221875 0.0207857033135
568 1 -0.019490625 -0.00125 0.012403125 0.000535660654302
569 1 -0.019490625 -0.00125 0.013584375 0.0181020425825
570 1 -0.019490625 -0.00125 0.014765625 7.02299466978e-08
571 1 -0.019490625 -0.00125 0.015946875 0.107179604771
572 1 -0.019490625 -0.00125 0.017128125 0.467554715637
573 1 -0.019490625 -0.00125 0.018309375 0.306751214506
574 1 -0.019490625 -0.00125 0.019490625 0.00167037327243
575 1 -0.019490625 -0.00125 0.020671875 0.000299133347856
576 1 -0.019490625 -0.00125 0.021853125 0.0778404200183
577 1 -0.019490625 -0.00125 0.023034375 0.357975472462
578 1 -0.019490625 -0.00125 0.024215625 0.707656727127
579 1 -0.019490625 -0.00125 0.025396875 0.788419281052
580 1 -0.019490625 -0.00125 0.026578125 0.389815367262
581 1 -0.019490625 -0.00125 0.027759375 0.343471624802
582 1 -0.019490625 -0.00125 0.028940625 0.24398468453