ITEM: TIMESTEP
0
ITEM: NUMBER OF ATOMS
3080
ITEM: BOX BOUNDS ss ss ss
-3.7007399999999996e-02 3.7007399999999996e-02
-2.0002499999999999e-03 2.5000000000000004e-07
-3.7007399999999996e-02 3.7007399999999996e-02
ITEM: ATOMS id type x y z c_1
0 1 -0.037209375 -0.00125 -0.000590625 1.0
1 1 -0.036028125 -0.00125 -0.007678125 0.0
2 1 -0.036028125 -0.00125 -0.006496875 0.0
3 1 -0.036028125 -0.00125 -0.005315625 0.0
4 1 -0.036028125 -0.00125 -0.004134375 0.0
5 1 -0.036028125 -0.00125 -0.002953125 0.0
6 1 -0.036028125 -0.00125 -0.001771875 0.0
7 1 -0.036028125 -0.00125 -0.000590625 0.0
8 1 -0.036028125 -0.00125 0.000590625 0.0
9 1 -0.036028125 -0.00125 0.001771875 0.0
10 1 -0.036028125 -0.00125 0.002953125 0.0
11 1 -0.036028125 -0.00125 0.004134375 0.0
12 1 -0.036028125 -0.00125 0.005315625 0.0
13 1 -0.036028125 -0.00125 0.006496875 0.0
14 1 -0.036028125 -0.00125 0.007678125 0.0
15 1 -0.034846875 -0.00125 -0.011221875 0.00920066229086
16 1 -0.034846875 -0.00125 -0.010040625 0.0
17 1 -0.034846875 -0.00125 -0.008859375 0.0
18 1 -0.034846875 -0.00125 -0.007678125 0.0
19 1 -0.034846875 -0.00125 -0.006496875 0.0
20 1 -0.034846875 -0.00125 -0.005315625 0.0
21 1 -0.034846875 -0.00125 -0.004134375 0.0
22 1 -0.034846875 -0.00125 -0.002953125 0.0
23 1 -0.034846875 -0.00125 -0.001771875 0.0
24 1 -0.034846875 -0.00125 -0.000590625 0.0
25 1 -0.034846875 -0.00125 0.000590625 0.0
26 1 -0.034846875 -0.00125 0.001771875 0.0
27 1 -0.034846875 -0.00125 0.002953125 0.0
28 1 -0.034846875 -0.00125 0.004134375 0.0
29 1 -0.034846875 -0.00125 0.005315625 0.0
30 1 -0.034846875 -0.00125 0.006496875 0.0
31 1 -0.034846875 -0.00125 0.007678125 0.0
32 1 -0.034846875 -0.00125 0.008859375 0.0
33 1 -0.034846875 -0.00125 0.010040625 0.0
34 1 -0.034846875 -0.00125 0.011221875 0.0
35 1 -0.033665625 -0.00125 -0.013584375 0.0
36 1 -0.033665625 -0.00125 -0.012403125 0.116073884862
37 1 -0.033665625 -0.00125 -0.011221875 0.0496408870238
38 1 -0.033665625 -0.00125 -0.010040625 0.0
39 1 -0.033665625 -0.00125 -0.008859375 0.0
40 1 -0.033665625 -0.00125 -0.007678125 0.0
41 1 -0.033665625 -0.00125 -0.006496875 0.0
42 1 -0.033665625 -0.00125 -0.005315625 0.0
43 1 -0.033665625 -0.00125 -0.004134375 0.0
44 1 -0.033665625 -0.00125 -0.002953125 0.0
45 1 -0.033665625 -0.00125 -0.001771875 0.0
46 1 -0.033665625 -0.00125 -0.000590625 0.0
47 1 -0.033665625 -0.00125 0.000590625 0.0
48 1 -0.033665625 -0.00125 0.001771875 0.0
49 1 -0.033665625 -0.00125 0.002953125 0.0
50 1 -0.033665625 -0.00125 0.004134375 0.0
51 1 -0.033665625 -0.00125 0.005315625 0.0
52 1 -0.033665625 -0.00125 0.006496875 0.0
53 1 -0.033665625 -0.00125 0.007678125 0.0
54 1 -0.033665625 -0.00125 0.008859375 0.0
55 1 -0.033665625 -0.00125 0.010040625 0.0
56 1 -0.033665625 -0.00125 0.011221875 0.0
57 1 -0.033665625 -0.00125 0.012403125 0.0
58 1 -0.033665625 -0.00125 0.013584375 0.0
59 1 -0.032484375 -0.00125 -0.018309375 0.0
60 1 -0.032484375 -0.00125 -0.017128125 0.0
61 1 -0.032484375 -0.00125 -0.015946875 0.0
62 1 -0.032484375 -0.00125 -0.014765625 0.0
63 1 -0.032484375 -0.00125 -0.013584375 0.0
64 1 -0.032484375 -0.00125 -0.012403125 3.07880835211e-05
65 1 -0.032484375 -0.00125 -0.011221875 1.74019667629e-11
66 1 -0.032484375 -0.00125 -0.010040625 0.0
67 1 -0.032484375 -0.00125 -0.008859375 0.0
68 1 -0.032484375 -0.00125 -0.007678125 0.0
69 1 -0.032484375 -0.00125 -0.006496875 0.0
70 1 -0.032484375 -0.00125 -0.005315625 0.0
71 1 -0.032484375 -0.00125 -0.004134375 0.0
72 1 -0.032484375 -0.00125 -0.002953125 0.0
73 1 -0.032484375 -0.00125 -0.001771875 0.0
74 1 -0.032484375 -0.00125 -0.000590625 0.0
75 1 -0.032484375 -0.00125 0.000590625 0.0
76 1 -0.032484375 -0.00125 0.001771875 0.0
77 1 -0.032484375 -0.00125 0.002953125 0.0
78 1 -0.032484375 -0.00125 0.004134375 0.0
79 1 -0.032484375 -0.00125 0.005315625 0.0
80 1 -0.032484375 -0.00125 0.006496875 0.0
81 1 -0.032484375 -0.00125 0.007678125 0.0
82 1 -0.032484375 -0.00125 0.008859375 0.0
83 1 -0.032484375 -0.00125 0.010040625 0.0
84 1 -0.032484375 -0.00125 0.011221875 0.0
85 1 -0.032484375 -0.00125 0.012403125 0.0
86 1 -0.032484375 -0.00125 0.013584375 0.0
87 1 -0.032484375 -0.00125 0.014765625 0.0
88 1 -0.032484375 -0.00125 0.015946875 0.0
89 1 -0.032484375 -0.00125 0.017128125 0.0
90 1 -0.032484375 -0.00125 0.018309375 0.00920066229086
91 1 -0.031303125 -0.00125 -0.019490625 0.0
92 1 -0.031303125 -0.00125 -0.018309375 0.0
93 1 -0.031303125 -0.00125 -0.017128125 0.0
94 1 -0.031303125 -0.00125 -0.015946875 0.0
95 1 -0.031303125 -0.00125 -0.014765625 0.0
96 1 -0.031303125 -0.00125 -0.013584375 0.0
97 1 -0.031303125 -0.00125 -0.012403125 0.0
98 1 -0.031303125 -0.00125 -0.011221875 0.0
99 1 -0.031303125 -0.00125 -0.010040625 0.0
100 1 -0.031303125 -0.00125 -0.008859375 0.0
101 1 -0.031303125 -0.00125 -0.007678125 0.0
102 1 -0.031303125 -0.00125 -0.006496875 0.0
103 1 -0.031303125 -0.00125 -0.005315625 0.0
104 1 -0.031303125 -0.00125 -0.004134375 0.0
105 1 -0.031303125 -0.00125 -0.002953125 0.0
106 1 -0.031303125 -0.00125 -0.001771875 0.0
107 1 -0.031303125 -0.00125 -0.000590625 0.0
108 1 -0.031303125 -0.00125 0.000590625 0.0
109 1 -0.031303125 -0.00125 0.001771875 0.0
110 1 -0.031303125 -0.00125 0.002953125 0.0
111 1 -0.031303125 -0.00125 0.004134375 0.0
112 1 -0.031303125 -0.00125 0.005315625 0.0
113 1 -0.031303125 -0.00125 0.006496875 0.0
114 1 -0.031303125 -0.00125 0.007678125 0.0
115 1 -0.031303125 -0.00125 0.008859375 0.0
116 1 -0.031303125 -0.00125 0.010040625 0.0
117 1 -0.031303125 -0.00125 0.011221875 0.0
118 1 -0.031303125 -0.00125 0.012403125 0.0
119 1 -0.031303125 -0.00125 0.013584375 0.0
120 1 -0.031303125 -0.00125 0.014765625 0.0
121 1 -0.031303125 -0.00125 0.015946875 0.0
122 1 -0.031303125 -0.00125 0.017128125 0.0
123 1 -0.031303125 -0.00125 0.018309375 0.019545473199
124 1 -0.031303125 -0.00125 0.019490625 0.00106277982739
125 1 -0.030121875 -0.00125 -0.020671875 0.0
126 1 -0.030121875 -0.00125 -0.019490625 0.0
127 1 -0.030121875 -0.00125 -0.018309375 0.0
128 1 -0.030121875 -0.00125 -0.017128125 0.0
129 1 -0.030121875 -0.00125 -0.015946875 0.0
130 1 -0.030121875 -0.00125 -0.014765625 0.0
131 1 -0.030121875 -0.00125 -0.013584375 0.0
132 1 -0.030121875 -0.00125 -0.012403125 0.0
133 1 -0.030121875 -0.00125 -0.011221875 0.0
134 1 -0.030121875 -0.00125 -0.010040625 0.0
135 1 -0.030121875 -0.00125 -0.008859375 0.0
136 1 -0.030121875 -0.00125 -0.007678125 0.0
137 1 -0.030121875 -0.00125 -0.006496875 0.0
138 1 -0.030121875 -0.00125 -0.005315625 0.0
139 1 -0.030121875 -0.00125 -0.004134375 0.0
140 1 -0.030121875 -0.00125 -0.002953125 0.0
141 1 -0.030121875 -0.00125 -0.001771875 0.0
142 1 -0.030121875 -0.00125 -0.000590625 0.0
143 1 -0.030121875 -0.00125 0.000590625 0.0
144 1 -0.030121875 -0.00125 0.001771875 0.0
145 1 -0.030121875 -0.00125 0.002953125 0.0
146 1 -0.030121875 -0.00125 0.004134375 0.0
147 1 -0.030121875 -0.00125 0.005315625 0.0
148 1 -0.030121875 -0.00125 0.006496875 0.0
149 1 -0.030121875 -0.00125 0.007678125 0.0
150 1 -0.030121875 -0.00125 0.008859375 0.0
151 1 -0.030121875 -0.00125 0.010040625 0.0
152 1 -0.030121875 -0.00125 0.011221875 0.0
153 1 -0.030121875 -0.00125 0.012403125 0.0
154 1 -0.030121875 -0.00125 0.013584375 0.0
155 1 -0.030121875 -0.00125 0.014765625 0.0
156 1 -0.030121875 -0.00125 0.015946875 0.0
157 1 -0.030121875 -0.00125 0.017128125 0.0
158 1 -0.030121875 -0.00125 0.018309375 0.000126658700522
159 1 -0.030121875 -0.00125 0.019490625 1.28754471296e-08
160 1 -0.030121875 -0.00125 0.020671875 0.0
161 1 -0.028940625 -0.00125 -0.021853125 0.0
162 1 -0.028940625 -0.00125 -0.020671875 0.0
163 1 -0.028940625 -0.00125 -0.019490625 0.0
164 1 -0.028940625 -0.00125 -0.018309375 0.0
165 1 -0.028940625 -0.00125 -0.017128125 0.0
166 1 -0.028940625 -0.00125 -0.015946875 0.0
167 1 -0.028940625 -0.00125 -0.014765625 0.0
168 1 -0.028940625 -0.00125 -0.013584375 0.0
169 1 -0.028940625 -0.00125 -0.012403125 0.0
170 1 -0.028940625 -0.00125 -0.011221875 0.0
171 1 -0.028940625 -0.00125 -0.010040625 0.0
172 1 -0.028940625 -0.00125 -0.008859375 0.0
173 1 -0.028940625 -0.00125 -0.007678125 0.0
174 1 -0.028940625 -0.00125 -0.006496875 0.0
175 1 -0.028940625 -0.00125 -0.005315625 0.0
176 1 -0.028940625 -0.00125 -0.004134375 0.0
177 1 -0.028940625 -0.00125 -0.002953125 0.0
178 1 -0.028940625 -0.00125 -0.001771875 0.0
179 1 -0.028940625 -0.00125 -0.000590625 0.0
180 1 -0.028940625 -0.00125 0.000590625 0.0
181 1 -0.028940625 -0.00125 0.001771875 0.0
182 1 -0.028940625 -0.00125 0.002953125 0.0
183 1 -0.028940625 -0.00125 0.004134375 0.0
184 1 -0.028940625 -0.00125 0.005315625 0.0
185 1 -0.028940625 -0.00125 0.006496875 0.0
186 1 -0.028940625 -0.00125 0.007678125 0.0
187 1 -0.028940625 -0.00125 0.008859375 0.0
188 1 -0.028940625 -0.00125 0.010040625 0.0
189 1 -0.028940625 -0.00125 0.011221875 0.0
190 1 -0.028940625 -0.00125 0.012403125 0.0
191 1 -0.028940625 -0.00125 0.013584375 0.0
192 1 -0.028940625 -0.00125 0.014765625 0.0
193 1 -0.028940625 -0.00125 0.015946875 0.0
194 1 -0.028940625 -0.00125 0.017128125 0.0
195 1 -0.028940625 -0.00125 0.018309375 0.00154813293271
196 1 -0.028940625 -0.00125 0.019490625 1.77729209249e-06
197 1 -0.028940625 -0.00125 0.020671875 0.0
198 1 -0.028940625 -0.00125 0.021853125 0.0
199 1 -0.027759375 -0.00125 -0.024215625 0.0
200 1 -0.027759375 -0.00125 -0.023034375 0.0
201 1 -0.027759375 -0.00125 -0.021853125 0.0
202 1 -0.027759375 -0.00125 -0.020671875 0.0
203 1 -0.027759375 -0.00125 -0.019490625 0.0
204 1 -0.027759375 -0.00125 -0.018309375 0.0
205 1 -0.027759375 -0.00125 -0.017128125 0.0
206 1 -0.027759375 -0.00125 -0.015946875 0.0
207 1 -0.027759375 -0.00125 -0.014765625 0.0
208 1 -0.027759375 -0.00125 -0.013584375 0.0
209 1 -0.027759375 -0.00125 -0.012403125 0.0
210 1 -0.027759375 -0.00125 -0.011221875 0.0
211 1 -0.027759375 -0.00125 -0.010040625 0.0
212 1 -0.027759375 -0.00125 -0.008859375 0.0
213 1 -0.027759375 -0.00125 -0.007678125 0.0
214 1 -0.027759375 -0.00125 -0.006496875 0.0
215 1 -0.027759375 -0.00125 -0.005315625 0.0
216 1 -0.027759375 -0.00125 -0.004134375 0.0
217 1 -0.027759375 -0.00125 -0.002953125 0.0
218 1 -0.027759375 -0.00125 -0.001771875 0.0
219 1 -0.027759375 -0.00125 -0.000590625 0.0
220 1 -0.027759375 -0.00125 0.000590625 0.0
221 1 -0.027759375 -0.00125 0.001771875 0.0
222 1 -0.027759375 -0.00125 0.002953125 0.0
223 1 -0.027759375 -0.00125 0.004134375 0.0
224 1 -0.027759375 -0.00125 0.005315625 0.0
225 1 -0.027759375 -0.00125 0.006496875 0.0
226 1 -0.027759375 -0.00125 0.007678125 0.0
227 1 -0.027759375 -0.00125 0.008859375 0.0
228 1 -0.027759375 -0.00125 0.010040625 0.0
229 1 -0.027759375 -0.00125 0.011221875 0.0
230 1 -0.027759375 -0.00125 0.012403125 0.0
231 1 -0.027759375 -0.00125 0.013584375 0.0
232 1 -0.027759375 -0.00125 0.014765625 0.0
233 1 -0.027759375 -0.00125 0.015946875 0.0
234 1 -0.027759375 -0.00125 0.017128125 0.0
235 1 -0.027759375 -0.00125 0.018309375 0.00154813293271
236 1 -0.027759375 -0.00125 0.019490625 3.07877004318e-05
237 1 -0.027759375 -0.00125 0.020671875 0.0
238 1 -0.027759375 -0.00125 0.021853125 0.0
239 1 -0.027759375 -0.00125 0.023034375 0.0
240 1 -0.027759375 -0.00125 0.024215625 0.0
241 1 -0.026578125 -0.00125 -0.026578125 0.0
242 1 -0.026578125 -0.00125 -0.025396875 0.0
243 1 -0.026578125 -0.00125 -0.024215625 2.79378975481e-22
244 1 -0.026578125 -0.00125 -0.023034375 0.0
245 1 -0.026578125 -0.00125 -0.021853125 0.0
246 1 -0.026578125 -0.00125 -0.020671875 0.0
247 1 -0.026578125 -0.00125 -0.019490625 1.48545584418e-16
248 1 -0.026578125 -0.00125 -0.018309375 0.0
249 1 -0.026578125 -0.00125 -0.017128125 0.0
250 1 -0.026578125 -0.00125 -0.015946875 0.0
251 1 -0.026578125 -0.00125 -0.014765625 0.0
252 1 -0.026578125 -0.00125 -0.013584375 0.0
253 1 -0.026578125 -0.00125 -0.012403125 0.0
254 1 -0.026578125 -0.00125 -0.011221875 0.0
255 1 -0.026578125 -0.00125 -0.010040625 2.79378975481e-22
256 1 -0.026578125 -0.00125 -0.008859375 0.0
257 1 -0.026578125 -0.00125 -0.007678125 2.79378975481e-22
258 1 -0.026578125 -0.00125 -0.006496875 2.79378975481e-22
259 1 -0.026578125 -0.00125 -0.005315625 0.0
260 1 -0.026578125 -0.00125 -0.004134375 0.0
261 1 -0.026578125 -0.00125 -0.002953125 0.0
262 1 -0.026578125 -0.00125 -0.001771875 3.14925560351e-13
263 1 -0.026578125 -0.00125 -0.000590625 1.60797611259e-09
264 1 -0.026578125 -0.00125 0.000590625 7.46395957453e-06
265 1 -0.026578125 -0.00125 0.001771875 6.01551003484e-07
266 1 -0.026578125 -0.00125 0.002953125 3.14925560351e-13
267 1 -0.026578125 -0.00125 0.004134375 0.0
268 1 -0.026578125 -0.00125 0.005315625 1.40785443464e-30
269 1 -0.026578125 -0.00125 0.006496875 1.40767914609e-30
270 1 -0.026578125 -0.00125 0.007678125 0.0
271 1 -0.026578125 -0.00125 0.008859375 0.0
272 1 -0.026578125 -0.00125 0.010040625 0.0
273 1 -0.026578125 -0.00125 0.011221875 0.0
274 1 -0.026578125 -0.00125 0.012403125 0.0
275 1 -0.026578125 -0.00125 0.013584375 0.0
276 1 -0.026578125 -0.00125 0.014765625 0.0
277 1 -0.026578125 -0.00125 0.015946875 0.0
278 1 -0.026578125 -0.00125 0.017128125 0.0
279 1 -0.026578125 -0.00125 0.018309375 0.00855160641309
280 1 -0.026578125 -0.00125 0.019490625 0.00154813210327
281 1 -0.026578125 -0.00125 0.020671875 0.0
282 1 -0.026578125 -0.00125 0.021853125 3.14925560351e-13
283 1 -0.026578125 -0.00125 0.023034375 0.0
284 1 -0.026578125 -0.00125 0.024215625 0.0
285 1 -0.026578125 -0.00125 0.025396875 0.0
286 1 -0.026578125 -0.00125 0.026578125 0.0
287 1 -0.025396875 -0.00125 -0.026578125 0.0
288 1 -0.025396875 -0.00125 -0.025396875 1.74019667629e-11
289 1 -0.025396875 -0.00125 -0.024215625 0.000126658700522
290 1 -0.025396875 -0.00125 -0.023034375 1.74019667629e-11
291 1 -0.025396875 -0.00125 -0.021853125 1.74019667629e-11
292 1 -0.025396875 -0.00125 -0.020671875 3.70458005324e-08
293 1 -0.025396875 -0.00125 -0.019490625 0.0207857392191
294 1 -0.025396875 -0.00125 -0.018309375 0.0
295 1 -0.025396875 -0.00125 -0.017128125 0.0
296 1 -0.025396875 -0.00125 -0.015946875 0.0
297 1 -0.025396875 -0.00125 -0.014765625 0.0
298 1 -0.025396875 -0.00125 -0.013584375 0.0
299 1 -0.025396875 -0.00125 -0.012403125 0.0
300 1 -0.025396875 -0.00125 -0.011221875 1.74019667629e-11
301 1 -0.025396875 -0.00125 -0.010040625 4.42606186288e-05
302 1 -0.025396875 -0.00125 -0.008859375 0.0107214510125
303 1 -0.025396875 -0.00125 -0.007678125 0.0107214510125
304 1 -0.025396875 -0.00125 -0.006496875 0.0600766491627
305 1 -0.025396875 -0.00125 -0.005315625 0.0293069224194
306 1 -0.025396875 -0.00125 -0.004134375 0.0138696939255
307 1 -0.025396875 -0.00125 -0.002953125 0.0138696939255
308 1 -0.025396875 -0.00125 -0.001771875 0.0746186412079
309 1 -0.025396875 -0.00125 -0.000590625 0.0645277377989
310 1 -0.025396875 -0.00125 0.000590625 0.0964521350783
311 1 -0.025396875 -0.00125 0.001771875 0.0746186412079
312 1 -0.025396875 -0.00125 0.002953125 0.0746186412079
313 1 -0.025396875 -0.00125 0.004134375 0.0622852805866
314 1 -0.025396875 -0.00125 0.005315625 0.0622852805866
315 1 -0.025396875 -0.00125 0.006496875 0.0220951943178
316 1 -0.025396875 -0.00125 0.007678125 4.52220221462e-06
317 1 -0.025396875 -0.00125 0.008859375 0.0
318 1 -0.025396875 -0.00125 0.010040625 0.0
319 1 -0.025396875 -0.00125 0.011221875 0.0
320 1 -0.025396875 -0.00125 0.012403125 0.0
321 1 -0.025396875 -0.00125 0.013584375 0.0
322 1 -0.025396875 -0.00125 0.014765625 0.0
323 1 -0.025396875 -0.00125 0.015946875 0.0
324 1 -0.025396875 -0.00125 0.017128125 0.0
325 1 -0.025396875 -0.00125 0.018309375 0.091233852548
326 1 -0.025396875 -0.00125 0.019490625 0.00855155891876
327 1 -0.025396875 -0.00125 0.020671875 0.0
328 1 -0.025396875 -0.00125 0.021853125 0.000126658700522
329 1 -0.025396875 -0.00125 0.023034375 6.01557630165e-07
330 1 -0.025396875 -0.00125 0.024215625 0.0
331 1 -0.025396875 -0.00125 0.025396875 0.0
332 1 -0.025396875 -0.00125 0.026578125 0.0
333 1 -0.024215625 -0.00125 -0.027759375 0.0
334 1 -0.024215625 -0.00125 -0.026578125 0.0
335 1 -0.024215625 -0.00125 -0.025396875 0.00474645121499
336 1 -0.024215625 -0.00125 -0.024215625 0.00154813293271
337 1 -0.024215625 -0.00125 -0.023034375 0.00668184101894
338 1 -0.024215625 -0.00125 -0.021853125 0.000126657572948
339 1 -0.024215625 -0.00125 -0.020671875 0.000891023127979
340 1 -0.024215625 -0.00125 -0.019490625 0.119202686097
341 1 -0.024215625 -0.00125 -0.018309375 0.0
342 1 -0.024215625 -0.00125 -0.017128125 0.0
343 1 -0.024215625 -0.00125 -0.015946875 0.0
344 1 -0.024215625 -0.00125 -0.014765625 0.0
345 1 -0.024215625 -0.00125 -0.013584375 0.0
346 1 -0.024215625 -0.00125 -0.012403125 1.74019667629e-11
347 1 -0.024215625 -0.00125 -0.011221875 0.0443322974297
348 1 -0.024215625 -0.00125 -0.010040625 0.159359297692
349 1 -0.024215625 -0.00125 -0.008859375 0.203051971158
350 1 -0.024215625 -0.00125 -0.007678125 0.230952152116
351 1 -0.024215625 -0.00125 -0.006496875 0.312303116458
352 1 -0.024215625 -0.00125 -0.005315625 0.252716464147
353 1 -0.024215625 -0.00125 -0.004134375 0.332327069371
354 1 -0.024215625 -0.00125 -0.002953125 0.252716967449
355 1 -0.024215625 -0.00125 -0.001771875 0.165468790974
356 1 -0.024215625 -0.00125 -0.000590625 0.124308818945
357 1 -0.024215625 -0.00125 0.000590625 0.149793784972
358 1 -0.024215625 -0.00125 0.001771875 0.0509111439139
359 1 -0.024215625 -0.00125 0.002953125 0.0698876476892
360 1 -0.024215625 -0.00125 0.004134375 0.0622852495443
361 1 -0.024215625 -0.00125 0.005315625 0.159358746116
362 1 -0.024215625 -0.00125 0.006496875 0.0267810506
363 1 -0.024215625 -0.00125 0.007678125 4.52220221462e-06
364 1 -0.024215625 -0.00125 0.008859375 0.0
365 1 -0.024215625 -0.00125 0.010040625 0.0
366 1 -0.024215625 -0.00125 0.011221875 0.0
367 1 -0.024215625 -0.00125 0.012403125 0.0
368 1 -0.024215625 -0.00125 0.013584375 0.0
369 1 -0.024215625 -0.00125 0.014765625 0.0
370 1 -0.024215625 -0.00125 0.015946875 0.0
371 1 -0.024215625 -0.00125 0.017128125 0.0
372 1 -0.024215625 -0.00125 0.018309375 0.123928325831
373 1 -0.024215625 -0.00125 0.019490625 0.00855155891876
374 1 -0.024215625 -0.00125 0.020671875 0.0
375 1 -0.024215625 -0.00125 0.021853125 0.000126658700522
376 1 -0.024215625 -0.00125 0.023034375 0.000126658700522
377 1 -0.024215625 -0.00125 0.024215625 0.000126658700522
378 1 -0.024215625 -0.00125 0.025396875 0.0
379 1 -0.024215625 -0.00125 0.026578125 0.0
380 1 -0.024215625 -0.00125 0.027759375 0.0
381 1 -0.023034375 -0.00125 -0.027759375 1.63558782507e-05
382 1 -0.023034375 -0.00125 -0.026578125 3.07879020573e-05
383 1 -0.023034375 -0.00125 -0.025396875 0.0138696939255
384 1 -0.023034375 -0.00125 -0.024215625 0.0138696939255
385 1 -0.023034375 -0.00125 -0.023034375 0.00154813293271
386 1 -0.023034375 -0.00125 -0.021853125 0.0243767952624
387 1 -0.023034375 -0.00125 -0.020671875 0.196692230435
388 1 -0.023034375 -0.00125 -0.019490625 0.167516128844
389 1 -0.023034375 -0.00125 -0.018309375 1.74019667629e-11
390 1 -0.023034375 -0.00125 -0.017128125 0.0
391 1 -0.023034375 -0.00125 -0.015946875 0.0
392 1 -0.023034375 -0.00125 -0.014765625 0.0
393 1 -0.023034375 -0.00125 -0.013584375 0.0
394 1 -0.023034375 -0.00125 -0.012403125 1.74019667629e-11
395 1 -0.023034375 -0.00125 -0.011221875 0.0175125972543
396 1 -0.023034375 -0.00125 -0.010040625 0.133535038668
397 1 -0.023034375 -0.00125 -0.008859375 0.0999860491522
398 1 -0.023034375 -0.00125 -0.007678125 0.123928325831
399 1 -0.023034375 -0.00125 -0.006496875 0.11175699854
400 1 -0.023034375 -0.00125 -0.005315625 0.14929428164
401 1 -0.023034375 -0.00125 -0.004134375 0.149294323427
402 1 -0.023034375 -0.00125 -0.002953125 0.252716464147
403 1 -0.023034375 -0.00125 -0.001771875 0.252716464147
404 1 -0.023034375 -0.00125 -0.000590625 0.105365860212
405 1 -0.023034375 -0.00125 0.000590625 0.167516128844
406 1 -0.023034375 -0.00125 0.001771875 0.0138696939255
407 1 -0.023034375 -0.00125 0.002953125 6.01557630165e-07
408 1 -0.023034375 -0.00125 0.004134375 4.52227625942e-06
409 1 -0.023034375 -0.00125 0.005315625 0.00154813293271
410 1 -0.023034375 -0.00125 0.006496875 2.79378975481e-22
411 1 -0.023034375 -0.00125 0.007678125 0.0
412 1 -0.023034375 -0.00125 0.008859375 0.0
413 1 -0.023034375 -0.00125 0.010040625 0.0
414 1 -0.023034375 -0.00125 0.011221875 0.0
415 1 -0.023034375 -0.00125 0.012403125 0.0
416 1 -0.023034375 -0.00125 0.013584375 0.0
417 1 -0.023034375 -0.00125 0.014765625 0.0
418 1 -0.023034375 -0.00125 0.015946875 0.0
419 1 -0.023034375 -0.00125 0.017128125 0.0
420 1 -0.023034375 -0.00125 0.018309375 0.123928325831
421 1 -0.023034375 -0.00125 0.019490625 0.0412041736236
422 1 -0.023034375 -0.00125 0.020671875 0.000126658700522
423 1 -0.023034375 -0.00125 0.021853125 0.000126658700522
424 1 -0.023034375 -0.00125 0.023034375 0.00154813293271
425 1 -0.023034375 -0.00125 0.024215625 0.000126658700522
426 1 -0.023034375 -0.00125 0.025396875 0.00154813293271
427 1 -0.023034375 -0.00125 0.026578125 0.0
428 1 -0.023034375 -0.00125 0.027759375 0.0
429 1 -0.021853125 -0.00125 -0.028940625 0.00245042064281
430 1 -0.021853125 -0.00125 -0.027759375 0.00255490305485
431 1 -0.021853125 -0.00125 -0.026578125 0.000741933140158
432 1 -0.021853125 -0.00125 -0.025396875 0.01386971523
433 1 -0.021853125 -0.00125 -0.024215625 0.0138696939255
434 1 -0.021853125 -0.00125 -0.023034375 0.0138696939255
435 1 -0.021853125 -0.00125 -0.021853125 0.0243767756543
436 1 -0.021853125 -0.00125 -0.020671875 0.241806908695
437 1 -0.021853125 -0.00125 -0.019490625 0.205179062488
438 1 -0.021853125 -0.00125 -0.018309375 1.74019667629e-11
439 1 -0.021853125 -0.00125 -0.017128125 0.0
440 1 -0.021853125 -0.00125 -0.015946875 0.0
441 1 -0.021853125 -0.00125 -0.014765625 0.0
442 1 -0.021853125 -0.00125 -0.013584375 2.79378975481e-22
443 1 -0.021853125 -0.00125 -0.012403125 0.000126657572948
444 1 -0.021853125 -0.00125 -0.011221875 4.52220221462e-06
445 1 -0.021853125 -0.00125 -0.010040625 0.000299132858986
446 1 -0.021853125 -0.00125 -0.008859375 0.000126658700522
447 1 -0.021853125 -0.00125 -0.007678125 1.74019667629e-11
448 1 -0.021853125 -0.00125 -0.006496875 3.14925560351e-13
449 1 -0.021853125 -0.00125 -0.005315625 0.000299131636816
450 1 -0.021853125 -0.00125 -0.004134375 0.00154812961495
451 1 -0.021853125 -0.00125 -0.002953125 0.0443322974297
452 1 -0.021853125 -0.00125 -0.001771875 0.149294365213
453 1 -0.021853125 -0.00125 -0.000590625 0.124880245792
454 1 -0.021853125 -0.00125 0.000590625 0.08243804851
455 1 -0.021853125 -0.00125 0.001771875 0.0324964072365
456 1 -0.021853125 -0.00125 0.002953125 0.00322594350264
457 1 -0.021853125 -0.00125 0.004134375 1.22156214432e-15
458 1 -0.021853125 -0.00125 0.005315625 0.0
459 1 -0.021853125 -0.00125 0.006496875 0.0
460 1 -0.021853125 -0.00125 0.007678125 0.0
461 1 -0.021853125 -0.00125 0.008859375 0.0
462 1 -0.021853125 -0.00125 0.010040625 0.0
463 1 -0.021853125 -0.00125 0.011221875 0.0
464 1 -0.021853125 -0.00125 0.012403125 0.0
465 1 -0.021853125 -0.00125 0.013584375 0.0
466 1 -0.021853125 -0.00125 0.014765625 0.0
467 1 -0.021853125 -0.00125 0.015946875 0.0
468 1 -0.021853125 -0.00125 0.017128125 1.74019667629e-11
469 1 -0.021853125 -0.00125 0.018309375 0.14929428164
470 1 -0.021853125 -0.00125 0.019490625 0.0308801942381
471 1 -0.021853125 -0.00125 0.020671875 0.00474645121499
472 1 -0.021853125 -0.00125 0.021853125 0.0138696939255
473 1 -0.021853125 -0.00125 0.023034375 0.00474645121499
474 1 -0.021853125 -0.00125 0.024215625 0.00154813293271
475 1 -0.021853125 -0.00125 0.025396875 0.00474645121499
476 1 -0.021853125 -0.00125 0.026578125 3.07879020573e-05
477 1 -0.021853125 -0.00125 0.027759375 0.0
478 1 -0.021853125 -0.00125 0.028940625 0.0
479 1 -0.020671875 -0.00125 -0.030121875 8.01171833736e-10
480 1 -0.020671875 -0.00125 -0.028940625 1.61610918776e-06
481 1 -0.020671875 -0.00125 -0.027759375 0.000126658700522
482 1 -0.020671875 -0.00125 -0.026578125 1.5838087899e-05
483 1 -0.020671875 -0.00125 -0.025396875 0.00154813293271
484 1 -0.020671875 -0.00125 -0.024215625 0.0138696939255
485 1 -0.020671875 -0.00125 -0.023034375 0.0138696939255
486 1 -0.020671875 -0.00125 -0.021853125 0.0138696939255
487 1 -0.020671875 -0.00125 -0.020671875 0.000891023127979
488 1 -0.020671875 -0.00125 -0.019490625 0.301205125778
489 1 -0.020671875 -0.00125 -0.018309375 0.0
490 1 -0.020671875 -0.00125 -0.017128125 0.0
491 1 -0.020671875 -0.00125 -0.015946875 1.22156214432e-15
492 1 -0.020671875 -0.00125 -0.014765625 0.0
493 1 -0.020671875 -0.00125 -0.013584375 3.07878012444e-05
494 1 -0.020671875 -0.00125 -0.012403125 0.00906546363727
495 1 -0.020671875 -0.00125 -0.011221875 1.74019667629e-11
496 1 -0.020671875 -0.00125 -0.010040625 1.74019667629e-11
497 1 -0.020671875 -0.00125 -0.008859375 0.0
498 1 -0.020671875 -0.00125 -0.007678125 0.0
499 1 -0.020671875 -0.00125 -0.006496875 0.0017993369064
500 1 -0.020671875 -0.00125 -0.005315625 0.0175125972543
501 1 -0.020671875 -0.00125 -0.004134375 0.00154812961495
502 1 -0.020671875 -0.00125 -0.002953125 0.00249557400626
503 1 -0.020671875 -0.00125 -0.001771875 0.00474644221021
504 1 -0.020671875 -0.00125 -0.000590625 0.00668182974929
505 1 -0.020671875 -0.00125 0.000590625 0.00565998393801
506 1 -0.020671875 -0.00125 0.001771875 0.00474644221021
507 1 -0.020671875 -0.00125 0.002953125 0.0243767952624
508 1 -0.020671875 -0.00125 0.004134375 0.0199375166154
509 1 -0.020671875 -0.00125 0.005315625 0.0107214510125
510 1 -0.020671875 -0.00125 0.006496875 6.01551003484e-07
511 1 -0.020671875 -0.00125 0.007678125 1.74019667629e-11
512 1 -0.020671875 -0.00125 0.008859375 0.0
513 1 -0.020671875 -0.00125 0.010040625 0.0
514 1 -0.020671875 -0.00125 0.011221875 1.74019667629e-11
515 1 -0.020671875 -0.00125 0.012403125 1.74019667629e-11
516 1 -0.020671875 -0.00125 0.013584375 0.0
517 1 -0.020671875 -0.00125 0.014765625 0.0
518 1 -0.020671875 -0.00125 0.015946875 0.0
519 1 -0.020671875 -0.00125 0.017128125 0.000126657572948
520 1 -0.020671875 -0.00125 0.018309375 0.186171540908
521 1 -0.020671875 -0.00125 0.019490625 0.0122342469149
522 1 -0.020671875 -0.00125 0.020671875 0.00474645121499
523 1 -0.020671875 -0.00125 0.021853125 0.00474645121499
524 1 -0.020671875 -0.00125 0.023034375 0.0138696939255
525 1 -0.020671875 -0.00125 0.024215625 0.00474645121499
526 1 -0.020671875 -0.00125 0.025396875 0.00474645121499
527 1 -0.020671875 -0.00125 0.026578125 0.000535662176186
528 1 -0.020671875 -0.00125 0.027759375 1.74019667629e-11
529 1 -0.020671875 -0.00125 0.028940625 0.0
530 1 -0.020671875 -0.00125 0.030121875 0.0
531 1 -0.019490625 -0.00125 -0.031303125 1.63557821907e-05
532 1 -0.019490625 -0.00125 -0.030121875 0.0
533 1 -0.019490625 -0.00125 -0.028940625 1.22156214432e-15
534 1 -0.019490625 -0.00125 -0.027759375 0.00037578707255
535 1 -0.019490625 -0.00125 -0.026578125 1.05578382748e-06
536 1 -0.019490625 -0.00125 -0.025396875 0.00118682874801
537 1 -0.019490625 -0.00125 -0.024215625 0.0085515641959
538 1 -0.019490625 -0.00125 -0.023034375 0.0138696939255
539 1 -0.019490625 -0.00125 -0.021853125 0.00284458672872
540 1 -0.019490625 -0.00125 -0.020671875 0.0138696939255
541 1 -0.019490625 -0.00125 -0.019490625 0.202520686428
542 1 -0.019490625 -0.00125 -0.018309375 0.0187026692579
543 1 -0.019490625 -0.00125 -0.017128125 0.0364314683579
544 1 -0.019490625 -0.00125 -0.015946875 0.0364314562571
545 1 -0.019490625 -0.00125 -0.014765625 0.0529663073376
546 1 -0.019490625 -0.00125 -0.013584375 0.0427545294099
547 1 -0.019490625 -0.00125 -0.012403125 7.69890035527e-05
548 1 -0.019490625 -0.00125 -0.011221875 0.00734856143324
549 1 -0.019490625 -0.00125 -0.010040625 0.00322593378988
550 1 -0.019490625 -0.00125 -0.008859375 0.00025512885511
551 1 -0.019490625 -0.00125 -0.007678125 0.00625982637822
552 1 -0.019490625 -0.00125 -0.006496875 0.0364315046602
553 1 -0.019490625 -0.00125 -0.005315625 0.00284458163855
554 1 -0.019490625 -0.00125 -0.004134375 0.000198679422043
555 1 -0.019490625 -0.00125 -0.002953125 3.07877004318e-05
556 1 -0.019490625 -0.00125 -0.001771875 1.74019667629e-11
557 1 -0.019490625 -0.00125 -0.000590625 7.02299466978e-08
558 1 -0.019490625 -0.00125 0.000590625 1.74019667629e-11
559 1 -0.019490625 -0.00125 0.001771875 4.52221866893e-06
560 1 -0.019490625 -0.00125 0.002953125 0.00565998393801
561 1 -0.019490625 -0.00125 0.004134375 0.0475687797882
562 1 -0.019490625 -0.00125 0.005315625 0.14929407271
563 1 -0.019490625 -0.00125 0.006496875 0.233118350218
564 1 -0.019490625 -0.00125 0.007678125 0.144321573665
565 1 -0.019490625 -0.00125 0.008859375 0.0827704654289
566 1 -0.019490625 -0.00125 0.010040625 0.0586232821011
567 1 -0.019490625 -0.00125 0.011221875 0.0243767854583
568 1 -0.019490625 -0.00125 0.012403125 7.02299466978e-08
569 1 -0.019490625 -0.00125 0.013584375 0.0
570 1 -0.019490625 -0.00125 0.014765625 0.0
571 1 -0.019490625 -0.00125 0.015946875 2.79378975481e-22
572 1 -0.019490625 -0.00125 0.017128125 0.036431516761
573 1 -0.019490625 -0.00125 0.018309375 0.375845016405
574 1 -0.019490625 -0.00125 0.019490625 0.0485605353501
575 1 -0.019490625 -0.00125 0.020671875 0.0085515641959
576 1 -0.019490625 -0.00125 0.021853125 0.0138696939255
577 1 -0.019490625 -0.00125 0.023034375 0.0138696939255
578 1 -0.019490625 -0.00125 0.024215625 0.0138696939255
579 1 -0.019490625 -0.00125 0.025396875 0.000535662176186
580 1 -0.019490625 -0.00125 0.026578125 0.000276457285028
581 1 -0.019490625 -0.00125 0.027759375 7.02299466978e-08
582 1 -0.019490625 -0.00125 0.028940625 0.0
583 1 -0.019490625 -0.00125 0.030121875 0.0
584 1 -0.019490625 -0.00125 0.031303125 0.0
585 1 -0.018309375 -0.00125 -0.032484375 1.7269595626e-06
586 1 -0.018309375 -0.00125 -0.031303125 1.61610918776e-06
587 1 -0.018309375 -0.00125 -0.030121875 0.0
588 1 -0.018309375 -0.00125 -0.028940625 0.0
589 1 -0.018309375 -0.00125 -0.027759375 6.01557630165e-07
590 1 -0.018309375 -0.00125 -0.026578125 2.79378975481e-22
591 1 -0.018309375 -0.00125 -0.025396875 6.01557630165e-07
592 1 -0.018309375 -0.00125 -0.024215625 0.00154813293271
593 1 -0.018309375 -0.00125 -0.023034375 0.000126658700522
594 1 -0.018309375 -0.00125 -0.021853125 0.0138696939255
595 1 -0.018309375 -0.00125 -0.020671875 0.00474645121499
596 1 -0.018309375 -0.00125 -0.019490625 0.159358746116
597 1 -0.018309375 -0.00125 -0.018309375 0.343471344865