ITEM: TIMESTEP
0
ITEM: NUMBER OF ATOMS
3080
ITEM: BOX BOUNDS ss ss ss
-3.7007399999999996e-02 3.7007399999999996e-02
-2.0002499999999999e-03 2.5000000000000004e-07
-3.7007399999999996e-02 3.7007399999999996e-02
ITEM: ATOMS id type x y z c_1
0 1 -0.037209375 -0.00125 -0.000590625 1.0
1 1 -0.036028125 -0.00125 -0.007678125 0.0
2 1 -0.036028125 -0.00125 -0.006496875 0.0
3 1 -0.036028125 -0.00125 -0.005315625 0.0
4 1 -0.036028125 -0.00125 -0.004134375 0.0
5 1 -0.036028125 -0.00125 -0.002953125 0.0
6 1 -0.036028125 -0.00125 -0.001771875 0.0
7 1 -0.036028125 -0.00125 -0.000590625 0.0
8 1 -0.036028125 -0.00125 0.000590625 0.0
9 1 -0.036028125 -0.00125 0.001771875 0.0
10 1 -0.036028125 -0.00125 0.002953125 0.0
11 1 -0.036028125 -0.00125 0.004134375 0.0
12 1 -0.036028125 -0.00125 0.005315625 0.0
13 1 -0.036028125 -0.00125 0.006496875 0.0
14 1 -0.036028125 -0.00125 0.007678125 0.0
15 1 -0.034846875 -0.00125 -0.011221875 0.000455413315469
16 1 -0.034846875 -0.00125 -0.010040625 0.0
17 1 -0.034846875 -0.00125 -0.008859375 5.44412977554e-09
18 1 -0.034846875 -0.00125 -0.007678125 0.0
19 1 -0.034846875 -0.00125 -0.006496875 0.0
20 1 -0.034846875 -0.00125 -0.005315625 0.0
21 1 -0.034846875 -0.00125 -0.004134375 0.0
22 1 -0.034846875 -0.00125 -0.002953125 0.0
23 1 -0.034846875 -0.00125 -0.001771875 0.0
24 1 -0.034846875 -0.00125 -0.000590625 0.0
25 1 -0.034846875 -0.00125 0.000590625 0.0
26 1 -0.034846875 -0.00125 0.001771875 0.0
27 1 -0.034846875 -0.00125 0.002953125 0.0
28 1 -0.034846875 -0.00125 0.004134375 0.0
29 1 -0.034846875 -0.00125 0.005315625 0.0
30 1 -0.034846875 -0.00125 0.006496875 0.0
31 1 -0.034846875 -0.00125 0.007678125 0.0
32 1 -0.034846875 -0.00125 0.008859375 0.0
33 1 -0.034846875 -0.00125 0.010040625 0.0
34 1 -0.034846875 -0.00125 0.011221875 0.0
35 1 -0.033665625 -0.00125 -0.013584375 0.0
36 1 -0.033665625 -0.00125 -0.012403125 1.63558782507e-05
37 1 -0.033665625 -0.00125 -0.011221875 0.0
38 1 -0.033665625 -0.00125 -0.010040625 1.74019667629e-11
39 1 -0.033665625 -0.00125 -0.008859375 0.0
40 1 -0.033665625 -0.00125 -0.007678125 0.0
41 1 -0.033665625 -0.00125 -0.006496875 0.0
42 1 -0.033665625 -0.00125 -0.005315625 0.0
43 1 -0.033665625 -0.00125 -0.004134375 0.0
44 1 -0.033665625 -0.00125 -0.002953125 0.0
45 1 -0.033665625 -0.00125 -0.001771875 0.0
46 1 -0.033665625 -0.00125 -0.000590625 0.0
47 1 -0.033665625 -0.00125 0.000590625 0.0
48 1 -0.033665625 -0.00125 0.001771875 0.0
49 1 -0.033665625 -0.00125 0.002953125 0.0
50 1 -0.033665625 -0.00125 0.004134375 0.0
51 1 -0.033665625 -0.00125 0.005315625 0.0
52 1 -0.033665625 -0.00125 0.006496875 0.0
53 1 -0.033665625 -0.00125 0.007678125 0.0
54 1 -0.033665625 -0.00125 0.008859375 0.0
55 1 -0.033665625 -0.00125 0.010040625 0.0
56 1 -0.033665625 -0.00125 0.011221875 0.0
57 1 -0.033665625 -0.00125 0.012403125 0.0
58 1 -0.033665625 -0.00125 0.013584375 0.0
59 1 -0.032484375 -0.00125 -0.018309375 0.0
60 1 -0.032484375 -0.00125 -0.017128125 0.0
61 1 -0.032484375 -0.00125 -0.015946875 1.27653918126e-20
62 1 -0.032484375 -0.00125 -0.014765625 2.66892347814e-17
63 1 -0.032484375 -0.00125 -0.013584375 0.0
64 1 -0.032484375 -0.00125 -0.012403125 0.0
65 1 -0.032484375 -0.00125 -0.011221875 0.0
66 1 -0.032484375 -0.00125 -0.010040625 0.0
67 1 -0.032484375 -0.00125 -0.008859375 0.0
68 1 -0.032484375 -0.00125 -0.007678125 0.0
69 1 -0.032484375 -0.00125 -0.006496875 0.0
70 1 -0.032484375 -0.00125 -0.005315625 0.0
71 1 -0.032484375 -0.00125 -0.004134375 0.0
72 1 -0.032484375 -0.00125 -0.002953125 0.0
73 1 -0.032484375 -0.00125 -0.001771875 0.0
74 1 -0.032484375 -0.00125 -0.000590625 0.0
75 1 -0.032484375 -0.00125 0.000590625 0.0
76 1 -0.032484375 -0.00125 0.001771875 0.0
77 1 -0.032484375 -0.00125 0.002953125 0.0
78 1 -0.032484375 -0.00125 0.004134375 0.0
79 1 -0.032484375 -0.00125 0.005315625 0.0
80 1 -0.032484375 -0.00125 0.006496875 0.0
81 1 -0.032484375 -0.00125 0.007678125 0.0
82 1 -0.032484375 -0.00125 0.008859375 0.0
83 1 -0.032484375 -0.00125 0.010040625 0.0
84 1 -0.032484375 -0.00125 0.011221875 0.0
85 1 -0.032484375 -0.00125 0.012403125 0.0
86 1 -0.032484375 -0.00125 0.013584375 0.0
87 1 -0.032484375 -0.00125 0.014765625 0.0
88 1 -0.032484375 -0.00125 0.015946875 0.0
89 1 -0.032484375 -0.00125 0.017128125 0.0
90 1 -0.032484375 -0.00125 0.018309375 0.0
91 1 -0.031303125 -0.00125 -0.019490625 0.0
92 1 -0.031303125 -0.00125 -0.018309375 0.0
93 1 -0.031303125 -0.00125 -0.017128125 0.0
94 1 -0.031303125 -0.00125 -0.015946875 0.0
95 1 -0.031303125 -0.00125 -0.014765625 0.0
96 1 -0.031303125 -0.00125 -0.013584375 0.0
97 1 -0.031303125 -0.00125 -0.012403125 0.0
98 1 -0.031303125 -0.00125 -0.011221875 0.0
99 1 -0.031303125 -0.00125 -0.010040625 0.0
100 1 -0.031303125 -0.00125 -0.008859375 0.0
101 1 -0.031303125 -0.00125 -0.007678125 0.0
102 1 -0.031303125 -0.00125 -0.006496875 0.0
103 1 -0.031303125 -0.00125 -0.005315625 0.0
104 1 -0.031303125 -0.00125 -0.004134375 0.0
105 1 -0.031303125 -0.00125 -0.002953125 0.0
106 1 -0.031303125 -0.00125 -0.001771875 0.0
107 1 -0.031303125 -0.00125 -0.000590625 0.0
108 1 -0.031303125 -0.00125 0.000590625 0.0
109 1 -0.031303125 -0.00125 0.001771875 0.0
110 1 -0.031303125 -0.00125 0.002953125 0.0
111 1 -0.031303125 -0.00125 0.004134375 0.0
112 1 -0.031303125 -0.00125 0.005315625 0.0
113 1 -0.031303125 -0.00125 0.006496875 0.0
114 1 -0.031303125 -0.00125 0.007678125 0.0
115 1 -0.031303125 -0.00125 0.008859375 0.0
116 1 -0.031303125 -0.00125 0.010040625 0.0
117 1 -0.031303125 -0.00125 0.011221875 0.0
118 1 -0.031303125 -0.00125 0.012403125 0.0
119 1 -0.031303125 -0.00125 0.013584375 0.0
120 1 -0.031303125 -0.00125 0.014765625 0.0
121 1 -0.031303125 -0.00125 0.015946875 0.0
122 1 -0.031303125 -0.00125 0.017128125 0.0
123 1 -0.031303125 -0.00125 0.018309375 0.0
124 1 -0.031303125 -0.00125 0.019490625 0.0
125 1 -0.030121875 -0.00125 -0.020671875 0.0
126 1 -0.030121875 -0.00125 -0.019490625 0.0
127 1 -0.030121875 -0.00125 -0.018309375 0.0
128 1 -0.030121875 -0.00125 -0.017128125 0.0
129 1 -0.030121875 -0.00125 -0.015946875 0.0
130 1 -0.030121875 -0.00125 -0.014765625 0.0
131 1 -0.030121875 -0.00125 -0.013584375 0.0
132 1 -0.030121875 -0.00125 -0.012403125 0.0
133 1 -0.030121875 -0.00125 -0.011221875 0.0
134 1 -0.030121875 -0.00125 -0.010040625 0.0
135 1 -0.030121875 -0.00125 -0.008859375 0.0
136 1 -0.030121875 -0.00125 -0.007678125 0.0
137 1 -0.030121875 -0.00125 -0.006496875 0.0
138 1 -0.030121875 -0.00125 -0.005315625 0.0
139 1 -0.030121875 -0.00125 -0.004134375 0.0
140 1 -0.030121875 -0.00125 -0.002953125 0.0
141 1 -0.030121875 -0.00125 -0.001771875 0.0
142 1 -0.030121875 -0.00125 -0.000590625 0.0
143 1 -0.030121875 -0.00125 0.000590625 0.0
144 1 -0.030121875 -0.00125 0.001771875 0.0
145 1 -0.030121875 -0.00125 0.002953125 0.0
146 1 -0.030121875 -0.00125 0.004134375 0.0
147 1 -0.030121875 -0.00125 0.005315625 0.0
148 1 -0.030121875 -0.00125 0.006496875 0.0
149 1 -0.030121875 -0.00125 0.007678125 0.0
150 1 -0.030121875 -0.00125 0.008859375 0.0
151 1 -0.030121875 -0.00125 0.010040625 0.0
152 1 -0.030121875 -0.00125 0.011221875 0.0
153 1 -0.030121875 -0.00125 0.012403125 0.0
154 1 -0.030121875 -0.00125 0.013584375 0.0
155 1 -0.030121875 -0.00125 0.014765625 0.0
156 1 -0.030121875 -0.00125 0.015946875 0.0
157 1 -0.030121875 -0.00125 0.017128125 0.0
158 1 -0.030121875 -0.00125 0.018309375 0.0
159 1 -0.030121875 -0.00125 0.019490625 0.0
160 1 -0.030121875 -0.00125 0.020671875 0.0
161 1 -0.028940625 -0.00125 -0.021853125 0.00466864259094
162 1 -0.028940625 -0.00125 -0.020671875 0.000245540111831
163 1 -0.028940625 -0.00125 -0.019490625 1.28754471296e-08
164 1 -0.028940625 -0.00125 -0.018309375 0.0
165 1 -0.028940625 -0.00125 -0.017128125 0.0
166 1 -0.028940625 -0.00125 -0.015946875 0.0
167 1 -0.028940625 -0.00125 -0.014765625 0.0
168 1 -0.028940625 -0.00125 -0.013584375 0.0
169 1 -0.028940625 -0.00125 -0.012403125 0.0
170 1 -0.028940625 -0.00125 -0.011221875 0.0
171 1 -0.028940625 -0.00125 -0.010040625 0.0
172 1 -0.028940625 -0.00125 -0.008859375 0.0
173 1 -0.028940625 -0.00125 -0.007678125 0.0
174 1 -0.028940625 -0.00125 -0.006496875 0.0
175 1 -0.028940625 -0.00125 -0.005315625 0.0
176 1 -0.028940625 -0.00125 -0.004134375 0.0
177 1 -0.028940625 -0.00125 -0.002953125 0.0
178 1 -0.028940625 -0.00125 -0.001771875 1.74019667629e-11
179 1 -0.028940625 -0.00125 -0.000590625 4.52220221462e-06
180 1 -0.028940625 -0.00125 0.000590625 0.0
181 1 -0.028940625 -0.00125 0.001771875 0.0
182 1 -0.028940625 -0.00125 0.002953125 0.0
183 1 -0.028940625 -0.00125 0.004134375 0.0
184 1 -0.028940625 -0.00125 0.005315625 0.0
185 1 -0.028940625 -0.00125 0.006496875 0.0
186 1 -0.028940625 -0.00125 0.007678125 0.0
187 1 -0.028940625 -0.00125 0.008859375 0.0
188 1 -0.028940625 -0.00125 0.010040625 0.0
189 1 -0.028940625 -0.00125 0.011221875 0.0
190 1 -0.028940625 -0.00125 0.012403125 0.0
191 1 -0.028940625 -0.00125 0.013584375 0.0
192 1 -0.028940625 -0.00125 0.014765625 0.0
193 1 -0.028940625 -0.00125 0.015946875 0.0
194 1 -0.028940625 -0.00125 0.017128125 0.0
195 1 -0.028940625 -0.00125 0.018309375 0.0
196 1 -0.028940625 -0.00125 0.019490625 0.0
197 1 -0.028940625 -0.00125 0.020671875 0.0
198 1 -0.028940625 -0.00125 0.021853125 0.0
199 1 -0.027759375 -0.00125 -0.024215625 0.0
200 1 -0.027759375 -0.00125 -0.023034375 0.283624760984
201 1 -0.027759375 -0.00125 -0.021853125 0.335865614861
202 1 -0.027759375 -0.00125 -0.020671875 0.01386971523
203 1 -0.027759375 -0.00125 -0.019490625 1.74019667629e-11
204 1 -0.027759375 -0.00125 -0.018309375 0.0
205 1 -0.027759375 -0.00125 -0.017128125 0.0
206 1 -0.027759375 -0.00125 -0.015946875 0.0
207 1 -0.027759375 -0.00125 -0.014765625 0.0
208 1 -0.027759375 -0.00125 -0.013584375 0.0
209 1 -0.027759375 -0.00125 -0.012403125 0.0
210 1 -0.027759375 -0.00125 -0.011221875 0.0
211 1 -0.027759375 -0.00125 -0.010040625 0.0
212 1 -0.027759375 -0.00125 -0.008859375 0.0
213 1 -0.027759375 -0.00125 -0.007678125 0.0
214 1 -0.027759375 -0.00125 -0.006496875 0.0
215 1 -0.027759375 -0.00125 -0.005315625 0.0
216 1 -0.027759375 -0.00125 -0.004134375 6.01557630165e-07
217 1 -0.027759375 -0.00125 -0.002953125 0.0243767952624
218 1 -0.027759375 -0.00125 -0.001771875 0.0912339065983
219 1 -0.027759375 -0.00125 -0.000590625 0.0698876802493
220 1 -0.027759375 -0.00125 0.000590625 0.000126657322377
221 1 -0.027759375 -0.00125 0.001771875 0.0
222 1 -0.027759375 -0.00125 0.002953125 0.0
223 1 -0.027759375 -0.00125 0.004134375 0.0
224 1 -0.027759375 -0.00125 0.005315625 0.0
225 1 -0.027759375 -0.00125 0.006496875 1.74014005978e-11
226 1 -0.027759375 -0.00125 0.007678125 4.52220221462e-06
227 1 -0.027759375 -0.00125 0.008859375 0.0
228 1 -0.027759375 -0.00125 0.010040625 0.0
229 1 -0.027759375 -0.00125 0.011221875 4.52227625942e-06
230 1 -0.027759375 -0.00125 0.012403125 0.0
231 1 -0.027759375 -0.00125 0.013584375 0.0
232 1 -0.027759375 -0.00125 0.014765625 0.0
233 1 -0.027759375 -0.00125 0.015946875 0.0
234 1 -0.027759375 -0.00125 0.017128125 0.0
235 1 -0.027759375 -0.00125 0.018309375 0.0
236 1 -0.027759375 -0.00125 0.019490625 0.0
237 1 -0.027759375 -0.00125 0.020671875 0.0
238 1 -0.027759375 -0.00125 0.021853125 0.0
239 1 -0.027759375 -0.00125 0.023034375 0.0
240 1 -0.027759375 -0.00125 0.024215625 0.0
241 1 -0.026578125 -0.00125 -0.026578125 0.0
242 1 -0.026578125 -0.00125 -0.025396875 1.27653918126e-20
243 1 -0.026578125 -0.00125 -0.024215625 5.83924610867e-06
244 1 -0.026578125 -0.00125 -0.023034375 0.0293069873474
245 1 -0.026578125 -0.00125 -0.021853125 0.263674773127
246 1 -0.026578125 -0.00125 -0.020671875 0.128706688471
247 1 -0.026578125 -0.00125 -0.019490625 0.000159509353574
248 1 -0.026578125 -0.00125 -0.018309375 0.0
249 1 -0.026578125 -0.00125 -0.017128125 0.0
250 1 -0.026578125 -0.00125 -0.015946875 0.0
251 1 -0.026578125 -0.00125 -0.014765625 0.0
252 1 -0.026578125 -0.00125 -0.013584375 0.0
253 1 -0.026578125 -0.00125 -0.012403125 0.0
254 1 -0.026578125 -0.00125 -0.011221875 2.79378975481e-22
255 1 -0.026578125 -0.00125 -0.010040625 1.5837818957e-05
256 1 -0.026578125 -0.00125 -0.008859375 0.00118683217225
257 1 -0.026578125 -0.00125 -0.007678125 0.00393677485419
258 1 -0.026578125 -0.00125 -0.006496875 0.0502344141494
259 1 -0.026578125 -0.00125 -0.005315625 0.194580463055
260 1 -0.026578125 -0.00125 -0.004134375 0.205178839796
261 1 -0.026578125 -0.00125 -0.002953125 0.0462613234581
262 1 -0.026578125 -0.00125 -0.001771875 0.00528180980365
263 1 -0.026578125 -0.00125 -0.000590625 0.00836936517446
264 1 -0.026578125 -0.00125 0.000590625 0.00680570049181
265 1 -0.026578125 -0.00125 0.001771875 3.07878012444e-05
266 1 -0.026578125 -0.00125 0.002953125 1.74019667629e-11
267 1 -0.026578125 -0.00125 0.004134375 2.79378975481e-22
268 1 -0.026578125 -0.00125 0.005315625 7.02309649834e-08
269 1 -0.026578125 -0.00125 0.006496875 0.000276457285028
270 1 -0.026578125 -0.00125 0.007678125 0.0267810609157
271 1 -0.026578125 -0.00125 0.008859375 0.0167441671843
272 1 -0.026578125 -0.00125 0.010040625 0.0698875662891
273 1 -0.026578125 -0.00125 0.011221875 0.095575355231
274 1 -0.026578125 -0.00125 0.012403125 0.0335974064356
275 1 -0.026578125 -0.00125 0.013584375 3.79114876176e-06
276 1 -0.026578125 -0.00125 0.014765625 2.79378975481e-22
277 1 -0.026578125 -0.00125 0.015946875 0.0
278 1 -0.026578125 -0.00125 0.017128125 0.0
279 1 -0.026578125 -0.00125 0.018309375 0.0
280 1 -0.026578125 -0.00125 0.019490625 0.0
281 1 -0.026578125 -0.00125 0.020671875 0.0
282 1 -0.026578125 -0.00125 0.021853125 0.0
283 1 -0.026578125 -0.00125 0.023034375 0.0
284 1 -0.026578125 -0.00125 0.024215625 0.0
285 1 -0.026578125 -0.00125 0.025396875 0.0
286 1 -0.026578125 -0.00125 0.026578125 0.0
287 1 -0.025396875 -0.00125 -0.026578125 1.18032841362e-10
288 1 -0.025396875 -0.00125 -0.025396875 0.133535038668
289 1 -0.025396875 -0.00125 -0.024215625 0.169569401239
290 1 -0.025396875 -0.00125 -0.023034375 0.00154813293271
291 1 -0.025396875 -0.00125 -0.021853125 6.01557630165e-07
292 1 -0.025396875 -0.00125 -0.020671875 4.52227625942e-06
293 1 -0.025396875 -0.00125 -0.019490625 0.0
294 1 -0.025396875 -0.00125 -0.018309375 0.0
295 1 -0.025396875 -0.00125 -0.017128125 0.0
296 1 -0.025396875 -0.00125 -0.015946875 0.0
297 1 -0.025396875 -0.00125 -0.014765625 0.0
298 1 -0.025396875 -0.00125 -0.013584375 3.14925560351e-13
299 1 -0.025396875 -0.00125 -0.012403125 0.0381872649833
300 1 -0.025396875 -0.00125 -0.011221875 0.114532075754
301 1 -0.025396875 -0.00125 -0.010040625 0.430635906715
302 1 -0.025396875 -0.00125 -0.008859375 0.616331960961
303 1 -0.025396875 -0.00125 -0.007678125 0.412738808647
304 1 -0.025396875 -0.00125 -0.006496875 0.177832084903
305 1 -0.025396875 -0.00125 -0.005315625 0.0698876476892
306 1 -0.025396875 -0.00125 -0.004134375 4.42606186288e-05
307 1 -0.025396875 -0.00125 -0.002953125 0.0
308 1 -0.025396875 -0.00125 -0.001771875 0.0
309 1 -0.025396875 -0.00125 -0.000590625 0.0
310 1 -0.025396875 -0.00125 0.000590625 1.74019667629e-11
311 1 -0.025396875 -0.00125 0.001771875 4.52220221462e-06
312 1 -0.025396875 -0.00125 0.002953125 1.74019667629e-11
313 1 -0.025396875 -0.00125 0.004134375 1.74019667629e-11
314 1 -0.025396875 -0.00125 0.005315625 1.74019667629e-11
315 1 -0.025396875 -0.00125 0.006496875 0.00019868031303
316 1 -0.025396875 -0.00125 0.007678125 0.00154813293271
317 1 -0.025396875 -0.00125 0.008859375 0.0293069007767
318 1 -0.025396875 -0.00125 0.010040625 0.292342717184
319 1 -0.025396875 -0.00125 0.011221875 0.281290216208
320 1 -0.025396875 -0.00125 0.012403125 0.07461867463
321 1 -0.025396875 -0.00125 0.013584375 0.00987185758727
322 1 -0.025396875 -0.00125 0.014765625 0.000126658700522
323 1 -0.025396875 -0.00125 0.015946875 4.52227625942e-06
324 1 -0.025396875 -0.00125 0.017128125 0.0
325 1 -0.025396875 -0.00125 0.018309375 0.0
326 1 -0.025396875 -0.00125 0.019490625 0.0
327 1 -0.025396875 -0.00125 0.020671875 0.0
328 1 -0.025396875 -0.00125 0.021853125 0.0
329 1 -0.025396875 -0.00125 0.023034375 0.0
330 1 -0.025396875 -0.00125 0.024215625 0.0
331 1 -0.025396875 -0.00125 0.025396875 0.0
332 1 -0.025396875 -0.00125 0.026578125 0.0
333 1 -0.024215625 -0.00125 -0.027759375 0.0
334 1 -0.024215625 -0.00125 -0.026578125 1.28754471296e-08
335 1 -0.024215625 -0.00125 -0.025396875 0.123928325831
336 1 -0.024215625 -0.00125 -0.024215625 0.430635345024
337 1 -0.024215625 -0.00125 -0.023034375 0.14929428164
338 1 -0.024215625 -0.00125 -0.021853125 1.74019667629e-11
339 1 -0.024215625 -0.00125 -0.020671875 0.0
340 1 -0.024215625 -0.00125 -0.019490625 2.79378975481e-22
341 1 -0.024215625 -0.00125 -0.018309375 0.0
342 1 -0.024215625 -0.00125 -0.017128125 0.0
343 1 -0.024215625 -0.00125 -0.015946875 1.22156214432e-15
344 1 -0.024215625 -0.00125 -0.014765625 4.42606186288e-05
345 1 -0.024215625 -0.00125 -0.013584375 0.0827702567622
346 1 -0.024215625 -0.00125 -0.012403125 0.493286914719
347 1 -0.024215625 -0.00125 -0.011221875 0.159358746116
348 1 -0.024215625 -0.00125 -0.010040625 0.159358746116
349 1 -0.024215625 -0.00125 -0.008859375 0.0999860491522
350 1 -0.024215625 -0.00125 -0.007678125 0.0622852495443
351 1 -0.024215625 -0.00125 -0.006496875 2.79378975481e-22
352 1 -0.024215625 -0.00125 -0.005315625 4.52227625942e-06
353 1 -0.024215625 -0.00125 -0.004134375 0.0
354 1 -0.024215625 -0.00125 -0.002953125 0.0
355 1 -0.024215625 -0.00125 -0.001771875 0.0
356 1 -0.024215625 -0.00125 -0.000590625 0.0
357 1 -0.024215625 -0.00125 0.000590625 0.0
358 1 -0.024215625 -0.00125 0.001771875 1.74019667629e-11
359 1 -0.024215625 -0.00125 0.002953125 1.74019667629e-11
360 1 -0.024215625 -0.00125 0.004134375 1.74019667629e-11
361 1 -0.024215625 -0.00125 0.005315625 0.0
362 1 -0.024215625 -0.00125 0.006496875 1.74019667629e-11
363 1 -0.024215625 -0.00125 0.007678125 0.00154813293271
364 1 -0.024215625 -0.00125 0.008859375 0.10900325236
365 1 -0.024215625 -0.00125 0.010040625 0.292342717184
366 1 -0.024215625 -0.00125 0.011221875 0.220161608427
367 1 -0.024215625 -0.00125 0.012403125 0.00474645121499
368 1 -0.024215625 -0.00125 0.013584375 1.77731074088e-06
369 1 -0.024215625 -0.00125 0.014765625 4.52227625942e-06
370 1 -0.024215625 -0.00125 0.015946875 0.0
371 1 -0.024215625 -0.00125 0.017128125 1.74019667629e-11
372 1 -0.024215625 -0.00125 0.018309375 0.0
373 1 -0.024215625 -0.00125 0.019490625 0.0
374 1 -0.024215625 -0.00125 0.020671875 0.0
375 1 -0.024215625 -0.00125 0.021853125 0.0
376 1 -0.024215625 -0.00125 0.023034375 0.0
377 1 -0.024215625 -0.00125 0.024215625 0.0
378 1 -0.024215625 -0.00125 0.025396875 0.0
379 1 -0.024215625 -0.00125 0.026578125 0.0
380 1 -0.024215625 -0.00125 0.027759375 0.0
381 1 -0.023034375 -0.00125 -0.027759375 0.00106278235535
382 1 -0.023034375 -0.00125 -0.026578125 1.28754471296e-08
383 1 -0.023034375 -0.00125 -0.025396875 0.00474644221021
384 1 -0.023034375 -0.00125 -0.024215625 0.441823153862
385 1 -0.023034375 -0.00125 -0.023034375 0.196692230435
386 1 -0.023034375 -0.00125 -0.021853125 1.74019667629e-11
387 1 -0.023034375 -0.00125 -0.020671875 0.0
388 1 -0.023034375 -0.00125 -0.019490625 1.28754471296e-08
389 1 -0.023034375 -0.00125 -0.018309375 0.000126657572948
390 1 -0.023034375 -0.00125 -0.017128125 0.010721438861
391 1 -0.023034375 -0.00125 -0.015946875 0.0243767756543
392 1 -0.023034375 -0.00125 -0.014765625 0.139391385346
393 1 -0.023034375 -0.00125 -0.013584375 0.0955753735432
394 1 -0.023034375 -0.00125 -0.012403125 0.0443322841124
395 1 -0.023034375 -0.00125 -0.011221875 0.0175125891118
396 1 -0.023034375 -0.00125 -0.010040625 1.74019667629e-11
397 1 -0.023034375 -0.00125 -0.008859375 0.0
398 1 -0.023034375 -0.00125 -0.007678125 0.0
399 1 -0.023034375 -0.00125 -0.006496875 0.0
400 1 -0.023034375 -0.00125 -0.005315625 0.0
401 1 -0.023034375 -0.00125 -0.004134375 0.0
402 1 -0.023034375 -0.00125 -0.002953125 0.0
403 1 -0.023034375 -0.00125 -0.001771875 0.0
404 1 -0.023034375 -0.00125 -0.000590625 0.0
405 1 -0.023034375 -0.00125 0.000590625 0.0
406 1 -0.023034375 -0.00125 0.001771875 1.74019667629e-11
407 1 -0.023034375 -0.00125 0.002953125 0.000126657572948
408 1 -0.023034375 -0.00125 0.004134375 1.74019667629e-11
409 1 -0.023034375 -0.00125 0.005315625 1.22156214432e-15
410 1 -0.023034375 -0.00125 0.006496875 7.69890035527e-05
411 1 -0.023034375 -0.00125 0.007678125 0.0175125891118
412 1 -0.023034375 -0.00125 0.008859375 0.175758893257
413 1 -0.023034375 -0.00125 0.010040625 0.241806863156
414 1 -0.023034375 -0.00125 0.011221875 0.0698876476892
415 1 -0.023034375 -0.00125 0.012403125 0.000891023127979
416 1 -0.023034375 -0.00125 0.013584375 0.000126658700522
417 1 -0.023034375 -0.00125 0.014765625 6.01557630165e-07
418 1 -0.023034375 -0.00125 0.015946875 0.000126658700522
419 1 -0.023034375 -0.00125 0.017128125 0.000126658700522
420 1 -0.023034375 -0.00125 0.018309375 0.091233852548
421 1 -0.023034375 -0.00125 0.019490625 0.0
422 1 -0.023034375 -0.00125 0.020671875 0.0
423 1 -0.023034375 -0.00125 0.021853125 0.0
424 1 -0.023034375 -0.00125 0.023034375 0.0
425 1 -0.023034375 -0.00125 0.024215625 0.0
426 1 -0.023034375 -0.00125 0.025396875 0.0
427 1 -0.023034375 -0.00125 0.026578125 0.0
428 1 -0.023034375 -0.00125 0.027759375 0.0
429 1 -0.021853125 -0.00125 -0.028940625 0.268719494335
430 1 -0.021853125 -0.00125 -0.027759375 0.0394161020542
431 1 -0.021853125 -0.00125 -0.026578125 0.000535657991014
432 1 -0.021853125 -0.00125 -0.025396875 0.000891017573599
433 1 -0.021853125 -0.00125 -0.024215625 0.292342717184
434 1 -0.021853125 -0.00125 -0.023034375 0.361325055821
435 1 -0.021853125 -0.00125 -0.021853125 4.52220221462e-06
436 1 -0.021853125 -0.00125 -0.020671875 0.0
437 1 -0.021853125 -0.00125 -0.019490625 1.28752206004e-08
438 1 -0.021853125 -0.00125 -0.018309375 0.0138696939255
439 1 -0.021853125 -0.00125 -0.017128125 0.0550579642476
440 1 -0.021853125 -0.00125 -0.015946875 0.155314522816
441 1 -0.021853125 -0.00125 -0.014765625 0.0381872649833
442 1 -0.021853125 -0.00125 -0.013584375 0.00284458418363
443 1 -0.021853125 -0.00125 -0.012403125 0.00154812961495
444 1 -0.021853125 -0.00125 -0.011221875 0.00154812961495
445 1 -0.021853125 -0.00125 -0.010040625 6.01557630165e-07
446 1 -0.021853125 -0.00125 -0.008859375 0.0
447 1 -0.021853125 -0.00125 -0.007678125 0.0
448 1 -0.021853125 -0.00125 -0.006496875 2.79378975481e-22
449 1 -0.021853125 -0.00125 -0.005315625 1.74019667629e-11
450 1 -0.021853125 -0.00125 -0.004134375 4.52220221462e-06
451 1 -0.021853125 -0.00125 -0.002953125 0.0
452 1 -0.021853125 -0.00125 -0.001771875 0.0
453 1 -0.021853125 -0.00125 -0.000590625 0.0
454 1 -0.021853125 -0.00125 0.000590625 0.0
455 1 -0.021853125 -0.00125 0.001771875 6.01557630165e-07
456 1 -0.021853125 -0.00125 0.002953125 0.0443322974297
457 1 -0.021853125 -0.00125 0.004134375 0.010721438861
458 1 -0.021853125 -0.00125 0.005315625 0.196692230435
459 1 -0.021853125 -0.00125 0.006496875 0.0999860491522
460 1 -0.021853125 -0.00125 0.007678125 0.203051971158
461 1 -0.021853125 -0.00125 0.008859375 0.252716464147
462 1 -0.021853125 -0.00125 0.010040625 0.0698876476892
463 1 -0.021853125 -0.00125 0.011221875 0.0138696939255
464 1 -0.021853125 -0.00125 0.012403125 0.0138696939255
465 1 -0.021853125 -0.00125 0.013584375 0.0138696939255
466 1 -0.021853125 -0.00125 0.014765625 0.0138696939255
467 1 -0.021853125 -0.00125 0.015946875 0.00474645121499
468 1 -0.021853125 -0.00125 0.017128125 0.186171540908
469 1 -0.021853125 -0.00125 0.018309375 0.186171540908
470 1 -0.021853125 -0.00125 0.019490625 1.28754471296e-08
471 1 -0.021853125 -0.00125 0.020671875 0.0
472 1 -0.021853125 -0.00125 0.021853125 0.0
473 1 -0.021853125 -0.00125 0.023034375 0.0
474 1 -0.021853125 -0.00125 0.024215625 0.0
475 1 -0.021853125 -0.00125 0.025396875 0.0
476 1 -0.021853125 -0.00125 0.026578125 0.0
477 1 -0.021853125 -0.00125 0.027759375 0.0
478 1 -0.021853125 -0.00125 0.028940625 0.0
479 1 -0.020671875 -0.00125 -0.030121875 0.205275981734
480 1 -0.020671875 -0.00125 -0.028940625 0.366579900733
481 1 -0.020671875 -0.00125 -0.027759375 0.0293069007767
482 1 -0.020671875 -0.00125 -0.026578125 0.00154813127383
483 1 -0.020671875 -0.00125 -0.025396875 0.0107214510125
484 1 -0.020671875 -0.00125 -0.024215625 0.310081568404
485 1 -0.020671875 -0.00125 -0.023034375 0.350163267536
486 1 -0.020671875 -0.00125 -0.021853125 4.52227625942e-06
487 1 -0.020671875 -0.00125 -0.020671875 0.0
488 1 -0.020671875 -0.00125 -0.019490625 0.00118683354194
489 1 -0.020671875 -0.00125 -0.018309375 0.0827704828178
490 1 -0.020671875 -0.00125 -0.017128125 0.0199375341518
491 1 -0.020671875 -0.00125 -0.015946875 0.0159958059657
492 1 -0.020671875 -0.00125 -0.014765625 0.0381872278205
493 1 -0.020671875 -0.00125 -0.013584375 0.0786540516722
494 1 -0.020671875 -0.00125 -0.012403125 0.0746186412079
495 1 -0.020671875 -0.00125 -0.011221875 1.74019667629e-11
496 1 -0.020671875 -0.00125 -0.010040625 0.0
497 1 -0.020671875 -0.00125 -0.008859375 0.0
498 1 -0.020671875 -0.00125 -0.007678125 0.0
499 1 -0.020671875 -0.00125 -0.006496875 3.14925560351e-13
500 1 -0.020671875 -0.00125 -0.005315625 0.00668182974929
501 1 -0.020671875 -0.00125 -0.004134375 6.01557630165e-07
502 1 -0.020671875 -0.00125 -0.002953125 0.0
503 1 -0.020671875 -0.00125 -0.001771875 0.0
504 1 -0.020671875 -0.00125 -0.000590625 0.000299131636816
505 1 -0.020671875 -0.00125 0.000590625 1.74019667629e-11
506 1 -0.020671875 -0.00125 0.001771875 6.01557630165e-07
507 1 -0.020671875 -0.00125 0.002953125 0.0381872649833
508 1 -0.020671875 -0.00125 0.004134375 0.149294783073
509 1 -0.020671875 -0.00125 0.005315625 0.21372123369
510 1 -0.020671875 -0.00125 0.006496875 0.366907865402
511 1 -0.020671875 -0.00125 0.007678125 0.350163267536
512 1 -0.020671875 -0.00125 0.008859375 0.0698876476892
513 1 -0.020671875 -0.00125 0.010040625 0.0138696939255
514 1 -0.020671875 -0.00125 0.011221875 0.0138696939255
515 1 -0.020671875 -0.00125 0.012403125 0.0138696939255
516 1 -0.020671875 -0.00125 0.013584375 0.0138696939255
517 1 -0.020671875 -0.00125 0.014765625 0.0138696939255
518 1 -0.020671875 -0.00125 0.015946875 0.186171540908
519 1 -0.020671875 -0.00125 0.017128125 0.252716464147
520 1 -0.020671875 -0.00125 0.018309375 0.00154813293271
521 1 -0.020671875 -0.00125 0.019490625 2.79378975481e-22
522 1 -0.020671875 -0.00125 0.020671875 0.0
523 1 -0.020671875 -0.00125 0.021853125 0.0
524 1 -0.020671875 -0.00125 0.023034375 0.0
525 1 -0.020671875 -0.00125 0.024215625 0.0
526 1 -0.020671875 -0.00125 0.025396875 0.0
527 1 -0.020671875 -0.00125 0.026578125 0.0
528 1 -0.020671875 -0.00125 0.027759375 0.0
529 1 -0.020671875 -0.00125 0.028940625 0.0
530 1 -0.020671875 -0.00125 0.030121875 0.0
531 1 -0.019490625 -0.00125 -0.031303125 0.00246714375756
532 1 -0.019490625 -0.00125 -0.030121875 0.024861758756
533 1 -0.019490625 -0.00125 -0.028940625 0.341242053333
534 1 -0.019490625 -0.00125 -0.027759375 0.0912340507322
535 1 -0.019490625 -0.00125 -0.026578125 0.00492070504623
536 1 -0.019490625 -0.00125 -0.025396875 0.000891030348712
537 1 -0.019490625 -0.00125 -0.024215625 0.247255224964
538 1 -0.019490625 -0.00125 -0.023034375 0.39037452881
539 1 -0.019490625 -0.00125 -0.021853125 0.0529662928778
540 1 -0.019490625 -0.00125 -0.020671875 0.0529662928778
541 1 -0.019490625 -0.00125 -0.019490625 0.163936399835
542 1 -0.019490625 -0.00125 -0.018309375 0.157333913073
543 1 -0.019490625 -0.00125 -0.017128125 0.129668570718
544 1 -0.019490625 -0.00125 -0.015946875 0.114532095179
545 1 -0.019490625 -0.00125 -0.014765625 0.134506394838
546 1 -0.019490625 -0.00125 -0.013584375 0.0262904268718
547 1 -0.019490625 -0.00125 -0.012403125 0.000891020350786
548 1 -0.019490625 -0.00125 -0.011221875 0.00228022595935
549 1 -0.019490625 -0.00125 -0.010040625 0.00322591852701
550 1 -0.019490625 -0.00125 -0.008859375 0.00179934798598
551 1 -0.019490625 -0.00125 -0.007678125 4.42606186288e-05
552 1 -0.019490625 -0.00125 -0.006496875 0.000696617910157
553 1 -0.019490625 -0.00125 -0.005315625 0.00987185758727
554 1 -0.019490625 -0.00125 -0.004134375 0.00474644221021
555 1 -0.019490625 -0.00125 -0.002953125 0.00037578707255
556 1 -0.019490625 -0.00125 -0.001771875 1.60797611259e-09
557 1 -0.019490625 -0.00125 -0.000590625 0.000276456824889
558 1 -0.019490625 -0.00125 0.000590625 0.0
559 1 -0.019490625 -0.00125 0.001771875 0.0
560 1 -0.019490625 -0.00125 0.002953125 0.00118682600863
561 1 -0.019490625 -0.00125 0.004134375 0.114531900931
562 1 -0.019490625 -0.00125 0.005315625 0.0869646320803
563 1 -0.019490625 -0.00125 0.006496875 0.332883689037
564 1 -0.019490625 -0.00125 0.007678125 0.16751617174
565 1 -0.019490625 -0.00125 0.008859375 0.0267810506
566 1 -0.019490625 -0.00125 0.010040625 0.0207856853608
567 1 -0.019490625 -0.00125 0.011221875 0.0138696939255
568 1 -0.019490625 -0.00125 0.012403125 0.0138696939255
569 1 -0.019490625 -0.00125 0.013584375 0.0402873163898
570 1 -0.019490625 -0.00125 0.014765625 0.199867928267
571 1 -0.019490625 -0.00125 0.015946875 0.10266431786
572 1 -0.019490625 -0.00125 0.017128125 0.000126656946521
573 1 -0.019490625 -0.00125 0.018309375 2.79378975481e-22
574 1 -0.019490625 -0.00125 0.019490625 0.0
575 1 -0.019490625 -0.00125 0.020671875 0.0
576 1 -0.019490625 -0.00125 0.021853125 0.0
577 1 -0.019490625 -0.00125 0.023034375 0.0
578 1 -0.019490625 -0.00125 0.024215625 0.0
579 1 -0.019490625 -0.00125 0.025396875 0.0
580 1 -0.019490625 -0.00125 0.026578125 0.0
581 1 -0.019490625 -0.00125 0.027759375 0.0
582 1 -0.019490625 -0.00125 0.028940625 0.0
583 1 -0.019490625 -0.00125 0.030121875 0.0
584 1 -0.019490625 -0.00125 0.031303125 0.0
585 1 -0.018309375 -0.00125 -0.032484375 0.0269362422409
586 1 -0.018309375 -0.00125 -0.031303125 0.502566683918
587 1 -0.018309375 -0.00125 -0.030121875 0.196692230435
588 1 -0.018309375 -0.00125 -0.028940625 0.123928365601
589 1 -0.018309375 -0.00125 -0.027759375 0.224470234239
590 1 -0.018309375 -0.00125 -0.026578125 0.00668184101894
591 1 -0.018309375 -0.00125 -0.025396875 0.000126658700522
592 1 -0.018309375 -0.00125 -0.024215625 0.123928325831
593 1 -0.018309375 -0.00125 -0.023034375 0.775530217004
594 1 -0.018309375 -0.00125 -0.021853125 0.123928325831
595 1 -0.018309375 -0.00125 -0.020671875 0.0827704306511