ITEM: TIMESTEP
0
ITEM: NUMBER OF ATOMS
3080
ITEM: BOX BOUNDS ss ss ss
-3.7007399999999996e-02 3.7007399999999996e-02
-2.0002499999999999e-03 2.5000000000000004e-07
-3.7007399999999996e-02 3.7007399999999996e-02
ITEM: ATOMS id type x y z c_1
0 1 -0.037209375 -0.00125 -0.000590625 0.283624760984
1 1 -0.036028125 -0.00125 -0.007678125 0.0
2 1 -0.036028125 -0.00125 -0.006496875 3.70458005324e-08
3 1 -0.036028125 -0.00125 -0.005315625 0.0
4 1 -0.036028125 -0.00125 -0.004134375 0.00207820714601
5 1 -0.036028125 -0.00125 -0.002953125 0.135479596443
6 1 -0.036028125 -0.00125 -0.001771875 0.323420627886
7 1 -0.036028125 -0.00125 -0.000590625 0.290998566367
8 1 -0.036028125 -0.00125 0.000590625 0.276750553991
9 1 -0.036028125 -0.00125 0.001771875 0.323420627886
10 1 -0.036028125 -0.00125 0.002953125 0.135479596443
11 1 -0.036028125 -0.00125 0.004134375 0.00207820714601
12 1 -0.036028125 -0.00125 0.005315625 0.0
13 1 -0.036028125 -0.00125 0.006496875 3.70458005324e-08
14 1 -0.036028125 -0.00125 0.007678125 0.0
15 1 -0.034846875 -0.00125 -0.011221875 0.000455413315469
16 1 -0.034846875 -0.00125 -0.010040625 0.439585388933
17 1 -0.034846875 -0.00125 -0.008859375 0.232375684815
18 1 -0.034846875 -0.00125 -0.007678125 1.61610918776e-06
19 1 -0.034846875 -0.00125 -0.006496875 2.79378975481e-22
20 1 -0.034846875 -0.00125 -0.005315625 0.0
21 1 -0.034846875 -0.00125 -0.004134375 0.000126658700522
22 1 -0.034846875 -0.00125 -0.002953125 0.0443322841124
23 1 -0.034846875 -0.00125 -0.001771875 0.488811743157
24 1 -0.034846875 -0.00125 -0.000590625 0.707657282816
25 1 -0.034846875 -0.00125 0.000590625 0.687697069467
26 1 -0.034846875 -0.00125 0.001771875 0.488811743157
27 1 -0.034846875 -0.00125 0.002953125 0.0443322841124
28 1 -0.034846875 -0.00125 0.004134375 0.000126658700522
29 1 -0.034846875 -0.00125 0.005315625 0.0
30 1 -0.034846875 -0.00125 0.006496875 2.79378975481e-22
31 1 -0.034846875 -0.00125 0.007678125 1.61610918776e-06
32 1 -0.034846875 -0.00125 0.008859375 0.232375684815
33 1 -0.034846875 -0.00125 0.010040625 0.439585388933
34 1 -0.034846875 -0.00125 0.011221875 0.000455413315469
35 1 -0.033665625 -0.00125 -0.013584375 3.21135970775e-07
36 1 -0.033665625 -0.00125 -0.012403125 0.0418564289367
37 1 -0.033665625 -0.00125 -0.011221875 1.18574745776e-05
38 1 -0.033665625 -0.00125 -0.010040625 0.292342717184
39 1 -0.033665625 -0.00125 -0.008859375 0.372492797347
40 1 -0.033665625 -0.00125 -0.007678125 0.00249557400626
41 1 -0.033665625 -0.00125 -0.006496875 3.07877004318e-05
42 1 -0.033665625 -0.00125 -0.005315625 0.00154812961495
43 1 -0.033665625 -0.00125 -0.004134375 0.0509111439139
44 1 -0.033665625 -0.00125 -0.002953125 0.21372123369
45 1 -0.033665625 -0.00125 -0.001771875 0.430635859907
46 1 -0.033665625 -0.00125 -0.000590625 0.540276619563
47 1 -0.033665625 -0.00125 0.000590625 0.60962547119
48 1 -0.033665625 -0.00125 0.001771875 0.430635859907
49 1 -0.033665625 -0.00125 0.002953125 0.21372123369
50 1 -0.033665625 -0.00125 0.004134375 0.0509111439139
51 1 -0.033665625 -0.00125 0.005315625 0.00154812961495
52 1 -0.033665625 -0.00125 0.006496875 3.07877004318e-05
53 1 -0.033665625 -0.00125 0.007678125 0.00249557400626
54 1 -0.033665625 -0.00125 0.008859375 0.372492797347
55 1 -0.033665625 -0.00125 0.010040625 0.292342717184
56 1 -0.033665625 -0.00125 0.011221875 1.18574745776e-05
57 1 -0.033665625 -0.00125 0.012403125 0.0418564289367
58 1 -0.033665625 -0.00125 0.013584375 3.21135970775e-07
59 1 -0.032484375 -0.00125 -0.018309375 0.000455413315469
60 1 -0.032484375 -0.00125 -0.017128125 0.103819694314
61 1 -0.032484375 -0.00125 -0.015946875 0.783280513242
62 1 -0.032484375 -0.00125 -0.014765625 0.309574335261
63 1 -0.032484375 -0.00125 -0.013584375 0.0269699557469
64 1 -0.032484375 -0.00125 -0.012403125 0.177832345443
65 1 -0.032484375 -0.00125 -0.011221875 0.154307268345
66 1 -0.032484375 -0.00125 -0.010040625 0.281290170023
67 1 -0.032484375 -0.00125 -0.008859375 0.709869584672
68 1 -0.032484375 -0.00125 -0.007678125 0.352395040306
69 1 -0.032484375 -0.00125 -0.006496875 0.332326836347
70 1 -0.032484375 -0.00125 -0.005315625 0.21908624719
71 1 -0.032484375 -0.00125 -0.004134375 0.30120517217
72 1 -0.032484375 -0.00125 -0.002953125 0.545870714363
73 1 -0.032484375 -0.00125 -0.001771875 0.658758226548
74 1 -0.032484375 -0.00125 -0.000590625 0.640908078098
75 1 -0.032484375 -0.00125 0.000590625 0.55444794085
76 1 -0.032484375 -0.00125 0.001771875 0.658758226548
77 1 -0.032484375 -0.00125 0.002953125 0.545870714363
78 1 -0.032484375 -0.00125 0.004134375 0.30120517217
79 1 -0.032484375 -0.00125 0.005315625 0.21908624719
80 1 -0.032484375 -0.00125 0.006496875 0.332326836347
81 1 -0.032484375 -0.00125 0.007678125 0.352395040306
82 1 -0.032484375 -0.00125 0.008859375 0.709869584672
83 1 -0.032484375 -0.00125 0.010040625 0.281290170023
84 1 -0.032484375 -0.00125 0.011221875 0.154307268345
85 1 -0.032484375 -0.00125 0.012403125 0.177832345443
86 1 -0.032484375 -0.00125 0.013584375 0.0269699557469
87 1 -0.032484375 -0.00125 0.014765625 0.309574335261
88 1 -0.032484375 -0.00125 0.015946875 0.783280513242
89 1 -0.032484375 -0.00125 0.017128125 0.103819694314
90 1 -0.032484375 -0.00125 0.018309375 0.000455413315469
91 1 -0.031303125 -0.00125 -0.019490625 1.60752748465e-07
92 1 -0.031303125 -0.00125 -0.018309375 0.0025548876984
93 1 -0.031303125 -0.00125 -0.017128125 0.21372123369
94 1 -0.031303125 -0.00125 -0.015946875 0.470910937833
95 1 -0.031303125 -0.00125 -0.014765625 0.775530217004
96 1 -0.031303125 -0.00125 -0.013584375 0.523494878031
97 1 -0.031303125 -0.00125 -0.012403125 0.540276619563
98 1 -0.031303125 -0.00125 -0.011221875 0.350163267536
99 1 -0.031303125 -0.00125 -0.010040625 0.224469737872
100 1 -0.031303125 -0.00125 -0.008859375 0.60962547119
101 1 -0.031303125 -0.00125 -0.007678125 0.459723333625
102 1 -0.031303125 -0.00125 -0.006496875 0.416094353373
103 1 -0.031303125 -0.00125 -0.005315625 0.000891023127979
104 1 -0.031303125 -0.00125 -0.004134375 1.74019667629e-11
105 1 -0.031303125 -0.00125 -0.002953125 0.0443322841124
106 1 -0.031303125 -0.00125 -0.001771875 0.241806863156
107 1 -0.031303125 -0.00125 -0.000590625 0.146305628696
108 1 -0.031303125 -0.00125 0.000590625 0.235286796702
109 1 -0.031303125 -0.00125 0.001771875 0.241806863156
110 1 -0.031303125 -0.00125 0.002953125 0.0443322841124
111 1 -0.031303125 -0.00125 0.004134375 1.74019667629e-11
112 1 -0.031303125 -0.00125 0.005315625 0.000891023127979
113 1 -0.031303125 -0.00125 0.006496875 0.416094353373
114 1 -0.031303125 -0.00125 0.007678125 0.459723333625
115 1 -0.031303125 -0.00125 0.008859375 0.60962547119
116 1 -0.031303125 -0.00125 0.010040625 0.224469737872
117 1 -0.031303125 -0.00125 0.011221875 0.350163267536
118 1 -0.031303125 -0.00125 0.012403125 0.540276619563
119 1 -0.031303125 -0.00125 0.013584375 0.523494878031
120 1 -0.031303125 -0.00125 0.014765625 0.775530217004
121 1 -0.031303125 -0.00125 0.015946875 0.470910937833
122 1 -0.031303125 -0.00125 0.017128125 0.21372123369
123 1 -0.031303125 -0.00125 0.018309375 0.0025548876984
124 1 -0.031303125 -0.00125 0.019490625 1.60752748465e-07
125 1 -0.030121875 -0.00125 -0.020671875 0.056860843261
126 1 -0.030121875 -0.00125 -0.019490625 0.000419308865758
127 1 -0.030121875 -0.00125 -0.018309375 0.0443322841124
128 1 -0.030121875 -0.00125 -0.017128125 0.332326556717
129 1 -0.030121875 -0.00125 -0.015946875 0.292342717184
130 1 -0.030121875 -0.00125 -0.014765625 0.441823107051
131 1 -0.030121875 -0.00125 -0.013584375 0.587260863762
132 1 -0.030121875 -0.00125 -0.012403125 0.558176892949
133 1 -0.030121875 -0.00125 -0.011221875 0.580550471812
134 1 -0.030121875 -0.00125 -0.010040625 0.60962547119
135 1 -0.030121875 -0.00125 -0.008859375 0.419450043018
136 1 -0.030121875 -0.00125 -0.007678125 0.529089062167
137 1 -0.030121875 -0.00125 -0.006496875 0.233118486248
138 1 -0.030121875 -0.00125 -0.005315625 0.0159958059657
139 1 -0.030121875 -0.00125 -0.004134375 0.0107214510125
140 1 -0.030121875 -0.00125 -0.002953125 0.0324964300741
141 1 -0.030121875 -0.00125 -0.001771875 0.224469737872
142 1 -0.030121875 -0.00125 -0.000590625 0.308971583758
143 1 -0.030121875 -0.00125 0.000590625 0.440927811149
144 1 -0.030121875 -0.00125 0.001771875 0.224469737872
145 1 -0.030121875 -0.00125 0.002953125 0.0324964300741
146 1 -0.030121875 -0.00125 0.004134375 0.0107214510125
147 1 -0.030121875 -0.00125 0.005315625 0.0159958059657
148 1 -0.030121875 -0.00125 0.006496875 0.233118486248
149 1 -0.030121875 -0.00125 0.007678125 0.529089062167
150 1 -0.030121875 -0.00125 0.008859375 0.419450043018
151 1 -0.030121875 -0.00125 0.010040625 0.60962547119
152 1 -0.030121875 -0.00125 0.011221875 0.580550471812
153 1 -0.030121875 -0.00125 0.012403125 0.558176892949
154 1 -0.030121875 -0.00125 0.013584375 0.587260863762
155 1 -0.030121875 -0.00125 0.014765625 0.441823107051
156 1 -0.030121875 -0.00125 0.015946875 0.292342717184
157 1 -0.030121875 -0.00125 0.017128125 0.332326556717
158 1 -0.030121875 -0.00125 0.018309375 0.0443322841124
159 1 -0.030121875 -0.00125 0.019490625 0.000419308865758
160 1 -0.030121875 -0.00125 0.020671875 0.056860843261
161 1 -0.028940625 -0.00125 -0.021853125 0.188410584854
162 1 -0.028940625 -0.00125 -0.020671875 0.178504266497
163 1 -0.028940625 -0.00125 -0.019490625 0.0999858445987
164 1 -0.028940625 -0.00125 -0.018309375 0.332327069371
165 1 -0.028940625 -0.00125 -0.017128125 0.401555093596
166 1 -0.028940625 -0.00125 -0.015946875 0.292342717184
167 1 -0.028940625 -0.00125 -0.014765625 0.235286796702
168 1 -0.028940625 -0.00125 -0.013584375 0.292343272873
169 1 -0.028940625 -0.00125 -0.012403125 0.459722771872
170 1 -0.028940625 -0.00125 -0.011221875 0.580550471812
171 1 -0.028940625 -0.00125 -0.010040625 0.949088912898
172 1 -0.028940625 -0.00125 -0.008859375 0.955667729205
173 1 -0.028940625 -0.00125 -0.007678125 0.78627876631
174 1 -0.028940625 -0.00125 -0.006496875 0.635325431787
175 1 -0.028940625 -0.00125 -0.005315625 0.230952152116
176 1 -0.028940625 -0.00125 -0.004134375 0.298987939022
177 1 -0.028940625 -0.00125 -0.002953125 0.39037452881
178 1 -0.028940625 -0.00125 -0.001771875 0.546989058137
179 1 -0.028940625 -0.00125 -0.000590625 0.705000044382
180 1 -0.028940625 -0.00125 0.000590625 0.575516514993
181 1 -0.028940625 -0.00125 0.001771875 0.546989058137
182 1 -0.028940625 -0.00125 0.002953125 0.39037452881
183 1 -0.028940625 -0.00125 0.004134375 0.298987939022
184 1 -0.028940625 -0.00125 0.005315625 0.230952152116
185 1 -0.028940625 -0.00125 0.006496875 0.635325431787
186 1 -0.028940625 -0.00125 0.007678125 0.78627876631
187 1 -0.028940625 -0.00125 0.008859375 0.955667729205
188 1 -0.028940625 -0.00125 0.010040625 0.949088912898
189 1 -0.028940625 -0.00125 0.011221875 0.580550471812
190 1 -0.028940625 -0.00125 0.012403125 0.459722771872
191 1 -0.028940625 -0.00125 0.013584375 0.292343272873
192 1 -0.028940625 -0.00125 0.014765625 0.235286796702
193 1 -0.028940625 -0.00125 0.015946875 0.292342717184
194 1 -0.028940625 -0.00125 0.017128125 0.401555093596
195 1 -0.028940625 -0.00125 0.018309375 0.332327069371
196 1 -0.028940625 -0.00125 0.019490625 0.0999858445987
197 1 -0.028940625 -0.00125 0.020671875 0.178504266497
198 1 -0.028940625 -0.00125 0.021853125 0.188410584854
199 1 -0.027759375 -0.00125 -0.024215625 1.7269595626e-06
200 1 -0.027759375 -0.00125 -0.023034375 0.0237387334688
201 1 -0.027759375 -0.00125 -0.021853125 0.057607006066
202 1 -0.027759375 -0.00125 -0.020671875 0.091233852548
203 1 -0.027759375 -0.00125 -0.019490625 0.107179604771
204 1 -0.027759375 -0.00125 -0.018309375 0.448535349767
205 1 -0.027759375 -0.00125 -0.017128125 0.540276619563
206 1 -0.027759375 -0.00125 -0.015946875 0.470910937833
207 1 -0.027759375 -0.00125 -0.014765625 0.186171540908
208 1 -0.027759375 -0.00125 -0.013584375 0.15935900069
209 1 -0.027759375 -0.00125 -0.012403125 0.159358746116
210 1 -0.027759375 -0.00125 -0.011221875 0.159358746116
211 1 -0.027759375 -0.00125 -0.010040625 0.511187741896
212 1 -0.027759375 -0.00125 -0.008859375 0.890996785895
213 1 -0.027759375 -0.00125 -0.007678125 0.830430598761
214 1 -0.027759375 -0.00125 -0.006496875 0.655413703745
215 1 -0.027759375 -0.00125 -0.005315625 0.51118821003
216 1 -0.027759375 -0.00125 -0.004134375 0.660987899129
217 1 -0.027759375 -0.00125 -0.002953125 0.412738808647
218 1 -0.027759375 -0.00125 -0.001771875 0.511187741896
219 1 -0.027759375 -0.00125 -0.000590625 0.84114784329
220 1 -0.027759375 -0.00125 0.000590625 0.858247626727
221 1 -0.027759375 -0.00125 0.001771875 0.511187741896
222 1 -0.027759375 -0.00125 0.002953125 0.412738808647
223 1 -0.027759375 -0.00125 0.004134375 0.660987899129
224 1 -0.027759375 -0.00125 0.005315625 0.51118821003
225 1 -0.027759375 -0.00125 0.006496875 0.655413703745
226 1 -0.027759375 -0.00125 0.007678125 0.830430598761
227 1 -0.027759375 -0.00125 0.008859375 0.890996785895
228 1 -0.027759375 -0.00125 0.010040625 0.511187741896
229 1 -0.027759375 -0.00125 0.011221875 0.159358746116
230 1 -0.027759375 -0.00125 0.012403125 0.159358746116
231 1 -0.027759375 -0.00125 0.013584375 0.15935900069
232 1 -0.027759375 -0.00125 0.014765625 0.186171540908
233 1 -0.027759375 -0.00125 0.015946875 0.470910937833
234 1 -0.027759375 -0.00125 0.017128125 0.540276619563
235 1 -0.027759375 -0.00125 0.018309375 0.448535349767
236 1 -0.027759375 -0.00125 0.019490625 0.107179604771
237 1 -0.027759375 -0.00125 0.020671875 0.091233852548
238 1 -0.027759375 -0.00125 0.021853125 0.057607006066
239 1 -0.027759375 -0.00125 0.023034375 0.0237387334688
240 1 -0.027759375 -0.00125 0.024215625 1.7269595626e-06
241 1 -0.026578125 -0.00125 -0.026578125 0.00466864259094
242 1 -0.026578125 -0.00125 -0.025396875 0.00701844813986
243 1 -0.026578125 -0.00125 -0.024215625 0.0165662800804
244 1 -0.026578125 -0.00125 -0.023034375 0.410501961931
245 1 -0.026578125 -0.00125 -0.021853125 0.272470973225
246 1 -0.026578125 -0.00125 -0.020671875 0.0267810609157
247 1 -0.026578125 -0.00125 -0.019490625 0.121558809124
248 1 -0.026578125 -0.00125 -0.018309375 0.194580198152
249 1 -0.026578125 -0.00125 -0.017128125 0.208376116436
250 1 -0.026578125 -0.00125 -0.015946875 0.395964703922
251 1 -0.026578125 -0.00125 -0.014765625 0.445178927541
252 1 -0.026578125 -0.00125 -0.013584375 0.207842660315
253 1 -0.026578125 -0.00125 -0.012403125 0.235287023673
254 1 -0.026578125 -0.00125 -0.011221875 0.159358746116
255 1 -0.026578125 -0.00125 -0.010040625 0.258189902415
256 1 -0.026578125 -0.00125 -0.008859375 0.624154936842
257 1 -0.026578125 -0.00125 -0.007678125 0.8826723422
258 1 -0.026578125 -0.00125 -0.006496875 0.848203986229
259 1 -0.026578125 -0.00125 -0.005315625 0.315636449038
260 1 -0.026578125 -0.00125 -0.004134375 0.355743098645
261 1 -0.026578125 -0.00125 -0.002953125 0.439585388933
262 1 -0.026578125 -0.00125 -0.001771875 0.805420022599
263 1 -0.026578125 -0.00125 -0.000590625 0.978927169253
264 1 -0.026578125 -0.00125 0.000590625 0.994011649828
265 1 -0.026578125 -0.00125 0.001771875 0.805420022599
266 1 -0.026578125 -0.00125 0.002953125 0.439585388933
267 1 -0.026578125 -0.00125 0.004134375 0.355743098645
268 1 -0.026578125 -0.00125 0.005315625 0.315636449038
269 1 -0.026578125 -0.00125 0.006496875 0.848203986229
270 1 -0.026578125 -0.00125 0.007678125 0.8826723422
271 1 -0.026578125 -0.00125 0.008859375 0.624154936842
272 1 -0.026578125 -0.00125 0.010040625 0.258189902415
273 1 -0.026578125 -0.00125 0.011221875 0.159358746116
274 1 -0.026578125 -0.00125 0.012403125 0.235287023673
275 1 -0.026578125 -0.00125 0.013584375 0.207842660315
276 1 -0.026578125 -0.00125 0.014765625 0.445178927541
277 1 -0.026578125 -0.00125 0.015946875 0.395964703922
278 1 -0.026578125 -0.00125 0.017128125 0.208376116436
279 1 -0.026578125 -0.00125 0.018309375 0.194580198152
280 1 -0.026578125 -0.00125 0.019490625 0.121558809124
281 1 -0.026578125 -0.00125 0.020671875 0.0267810609157
282 1 -0.026578125 -0.00125 0.021853125 0.272470973225
283 1 -0.026578125 -0.00125 0.023034375 0.410501961931
284 1 -0.026578125 -0.00125 0.024215625 0.0165662800804
285 1 -0.026578125 -0.00125 0.025396875 0.00701844813986
286 1 -0.026578125 -0.00125 0.026578125 0.00466864259094
287 1 -0.025396875 -0.00125 -0.026578125 0.0
288 1 -0.025396875 -0.00125 -0.025396875 0.0
289 1 -0.025396875 -0.00125 -0.024215625 0.00154813293271
290 1 -0.025396875 -0.00125 -0.023034375 0.14929428164
291 1 -0.025396875 -0.00125 -0.021853125 0.569364654976
292 1 -0.025396875 -0.00125 -0.020671875 0.598444906404
293 1 -0.025396875 -0.00125 -0.019490625 0.5
294 1 -0.025396875 -0.00125 -0.018309375 0.350163267536
295 1 -0.025396875 -0.00125 -0.017128125 0.678803556406
296 1 -0.025396875 -0.00125 -0.015946875 0.796948028842
297 1 -0.025396875 -0.00125 -0.014765625 0.551464650233
298 1 -0.025396875 -0.00125 -0.013584375 0.343471344865
299 1 -0.025396875 -0.00125 -0.012403125 0.321195978177
300 1 -0.025396875 -0.00125 -0.011221875 0.0698876476892
301 1 -0.025396875 -0.00125 -0.010040625 0.133535038668
302 1 -0.025396875 -0.00125 -0.008859375 0.303423296049
303 1 -0.025396875 -0.00125 -0.007678125 0.580549910179
304 1 -0.025396875 -0.00125 -0.006496875 0.850705969076
305 1 -0.025396875 -0.00125 -0.005315625 0.99999547781
306 1 -0.025396875 -0.00125 -0.004134375 0.999108981871
307 1 -0.025396875 -0.00125 -0.002953125 0.999999398426
308 1 -0.025396875 -0.00125 -0.001771875 0.990934547312
309 1 -0.025396875 -0.00125 -0.000590625 0.999403731704
310 1 -0.025396875 -0.00125 0.000590625 0.984371078106
311 1 -0.025396875 -0.00125 0.001771875 0.990934547312
312 1 -0.025396875 -0.00125 0.002953125 0.999999398426
313 1 -0.025396875 -0.00125 0.004134375 0.999108981871
314 1 -0.025396875 -0.00125 0.005315625 0.99999547781
315 1 -0.025396875 -0.00125 0.006496875 0.850705969076
316 1 -0.025396875 -0.00125 0.007678125 0.580549910179
317 1 -0.025396875 -0.00125 0.008859375 0.303423296049
318 1 -0.025396875 -0.00125 0.010040625 0.133535038668
319 1 -0.025396875 -0.00125 0.011221875 0.0698876476892
320 1 -0.025396875 -0.00125 0.012403125 0.321195978177
321 1 -0.025396875 -0.00125 0.013584375 0.343471344865
322 1 -0.025396875 -0.00125 0.014765625 0.551464650233
323 1 -0.025396875 -0.00125 0.015946875 0.796948028842
324 1 -0.025396875 -0.00125 0.017128125 0.678803556406
325 1 -0.025396875 -0.00125 0.018309375 0.350163267536
326 1 -0.025396875 -0.00125 0.019490625 0.5
327 1 -0.025396875 -0.00125 0.020671875 0.598444906404
328 1 -0.025396875 -0.00125 0.021853125 0.569364654976
329 1 -0.025396875 -0.00125 0.023034375 0.14929428164
330 1 -0.025396875 -0.00125 0.024215625 0.00154813293271
331 1 -0.025396875 -0.00125 0.025396875 0.0
332 1 -0.025396875 -0.00125 0.026578125 0.0
333 1 -0.024215625 -0.00125 -0.027759375 0.0
334 1 -0.024215625 -0.00125 -0.026578125 1.27653918126e-20
335 1 -0.024215625 -0.00125 -0.025396875 0.0
336 1 -0.024215625 -0.00125 -0.024215625 0.0
337 1 -0.024215625 -0.00125 -0.023034375 0.0381872649833
338 1 -0.024215625 -0.00125 -0.021853125 0.123928325831
339 1 -0.024215625 -0.00125 -0.020671875 0.01386971523
340 1 -0.024215625 -0.00125 -0.019490625 0.0722376947642
341 1 -0.024215625 -0.00125 -0.018309375 0.0622852805866
342 1 -0.024215625 -0.00125 -0.017128125 0.401555093596
343 1 -0.024215625 -0.00125 -0.015946875 0.551464650233
344 1 -0.024215625 -0.00125 -0.014765625 0.51118821003
345 1 -0.024215625 -0.00125 -0.013584375 0.684363504457
346 1 -0.024215625 -0.00125 -0.012403125 0.252716464147
347 1 -0.024215625 -0.00125 -0.011221875 0.0509111013046
348 1 -0.024215625 -0.00125 -0.010040625 0.0509111013046
349 1 -0.024215625 -0.00125 -0.008859375 0.0999860491522
350 1 -0.024215625 -0.00125 -0.007678125 0.390374014268
351 1 -0.024215625 -0.00125 -0.006496875 0.678803742573
352 1 -0.024215625 -0.00125 -0.005315625 0.803307769565
353 1 -0.024215625 -0.00125 -0.004134375 0.99995573976
354 1 -0.024215625 -0.00125 -0.002953125 1.0
355 1 -0.024215625 -0.00125 -0.001771875 0.986130306074
356 1 -0.024215625 -0.00125 -0.000590625 0.999981792347
357 1 -0.024215625 -0.00125 0.000590625 0.999998873785
358 1 -0.024215625 -0.00125 0.001771875 0.986130306074
359 1 -0.024215625 -0.00125 0.002953125 1.0
360 1 -0.024215625 -0.00125 0.004134375 0.99995573976
361 1 -0.024215625 -0.00125 0.005315625 0.803307769565
362 1 -0.024215625 -0.00125 0.006496875 0.678803742573
363 1 -0.024215625 -0.00125 0.007678125 0.390374014268
364 1 -0.024215625 -0.00125 0.008859375 0.0999860491522
365 1 -0.024215625 -0.00125 0.010040625 0.0509111013046
366 1 -0.024215625 -0.00125 0.011221875 0.0509111013046
367 1 -0.024215625 -0.00125 0.012403125 0.252716464147
368 1 -0.024215625 -0.00125 0.013584375 0.684363504457
369 1 -0.024215625 -0.00125 0.014765625 0.51118821003
370 1 -0.024215625 -0.00125 0.015946875 0.551464650233
371 1 -0.024215625 -0.00125 0.017128125 0.401555093596
372 1 -0.024215625 -0.00125 0.018309375 0.0622852805866
373 1 -0.024215625 -0.00125 0.019490625 0.0722376947642
374 1 -0.024215625 -0.00125 0.020671875 0.01386971523
375 1 -0.024215625 -0.00125 0.021853125 0.123928325831
376 1 -0.024215625 -0.00125 0.023034375 0.0381872649833
377 1 -0.024215625 -0.00125 0.024215625 0.0
378 1 -0.024215625 -0.00125 0.025396875 0.0
379 1 -0.024215625 -0.00125 0.026578125 1.27653918126e-20
380 1 -0.024215625 -0.00125 0.027759375 0.0
381 1 -0.023034375 -0.00125 -0.027759375 0.135201527912
382 1 -0.023034375 -0.00125 -0.026578125 1.28754471296e-08
383 1 -0.023034375 -0.00125 -0.025396875 0.0
384 1 -0.023034375 -0.00125 -0.024215625 0.0
385 1 -0.023034375 -0.00125 -0.023034375 0.01386971523
386 1 -0.023034375 -0.00125 -0.021853125 0.0381872278205
387 1 -0.023034375 -0.00125 -0.020671875 0.00154812961495
388 1 -0.023034375 -0.00125 -0.019490625 1.60801117159e-09
389 1 -0.023034375 -0.00125 -0.018309375 0.00474645121499
390 1 -0.023034375 -0.00125 -0.017128125 0.292342717184
391 1 -0.023034375 -0.00125 -0.015946875 0.274673763196
392 1 -0.023034375 -0.00125 -0.014765625 0.0443322841124
393 1 -0.023034375 -0.00125 -0.013584375 0.766881513752
394 1 -0.023034375 -0.00125 -0.012403125 0.718709829977
395 1 -0.023034375 -0.00125 -0.011221875 0.14929428164
396 1 -0.023034375 -0.00125 -0.010040625 0.123928325831
397 1 -0.023034375 -0.00125 -0.008859375 0.252716464147
398 1 -0.023034375 -0.00125 -0.007678125 0.292342717184
399 1 -0.023034375 -0.00125 -0.006496875 0.620802658107
400 1 -0.023034375 -0.00125 -0.005315625 0.975623214542
401 1 -0.023034375 -0.00125 -0.004134375 0.99999547781
402 1 -0.023034375 -0.00125 -0.002953125 1.0
403 1 -0.023034375 -0.00125 -0.001771875 0.999873340047
404 1 -0.023034375 -0.00125 -0.000590625 0.999873343053
405 1 -0.023034375 -0.00125 0.000590625 0.986130306074
406 1 -0.023034375 -0.00125 0.001771875 0.999873340047
407 1 -0.023034375 -0.00125 0.002953125 1.0
408 1 -0.023034375 -0.00125 0.004134375 0.99999547781
409 1 -0.023034375 -0.00125 0.005315625 0.975623214542
410 1 -0.023034375 -0.00125 0.006496875 0.620802658107
411 1 -0.023034375 -0.00125 0.007678125 0.292342717184
412 1 -0.023034375 -0.00125 0.008859375 0.252716464147
413 1 -0.023034375 -0.00125 0.010040625 0.123928325831
414 1 -0.023034375 -0.00125 0.011221875 0.14929428164
415 1 -0.023034375 -0.00125 0.012403125 0.718709829977
416 1 -0.023034375 -0.00125 0.013584375 0.766881513752
417 1 -0.023034375 -0.00125 0.014765625 0.0443322841124
418 1 -0.023034375 -0.00125 0.015946875 0.274673763196
419 1 -0.023034375 -0.00125 0.017128125 0.292342717184
420 1 -0.023034375 -0.00125 0.018309375 0.00474645121499
421 1 -0.023034375 -0.00125 0.019490625 1.60801117159e-09
422 1 -0.023034375 -0.00125 0.020671875 0.00154812961495
423 1 -0.023034375 -0.00125 0.021853125 0.0381872278205
424 1 -0.023034375 -0.00125 0.023034375 0.01386971523
425 1 -0.023034375 -0.00125 0.024215625 0.0
426 1 -0.023034375 -0.00125 0.025396875 0.0
427 1 -0.023034375 -0.00125 0.026578125 1.28754471296e-08
428 1 -0.023034375 -0.00125 0.027759375 0.135201527912
429 1 -0.021853125 -0.00125 -0.028940625 0.00466864259094
430 1 -0.021853125 -0.00125 -0.027759375 0.178504744508
431 1 -0.021853125 -0.00125 -0.026578125 7.69891724187e-05
432 1 -0.021853125 -0.00125 -0.025396875 0.0
433 1 -0.021853125 -0.00125 -0.024215625 0.0
434 1 -0.021853125 -0.00125 -0.023034375 1.22156214432e-15
435 1 -0.021853125 -0.00125 -0.021853125 0.000126658700522
436 1 -0.021853125 -0.00125 -0.020671875 4.52220221462e-06
437 1 -0.021853125 -0.00125 -0.019490625 1.74014005978e-11
438 1 -0.021853125 -0.00125 -0.018309375 0.123928325831
439 1 -0.021853125 -0.00125 -0.017128125 0.281290170023
440 1 -0.021853125 -0.00125 -0.015946875 0.0509111013046
441 1 -0.021853125 -0.00125 -0.014765625 4.52227625942e-06
442 1 -0.021853125 -0.00125 -0.013584375 0.61521440805
443 1 -0.021853125 -0.00125 -0.012403125 0.764713248693
444 1 -0.021853125 -0.00125 -0.011221875 0.620802377555
445 1 -0.021853125 -0.00125 -0.010040625 0.482099221396
446 1 -0.021853125 -0.00125 -0.008859375 0.423924351901
447 1 -0.021853125 -0.00125 -0.007678125 0.372492797347
448 1 -0.021853125 -0.00125 -0.006496875 0.678803742573
449 1 -0.021853125 -0.00125 -0.005315625 0.975623214542
450 1 -0.021853125 -0.00125 -0.004134375 0.999108981871
451 1 -0.021853125 -0.00125 -0.002953125 0.999999398426
452 1 -0.021853125 -0.00125 -0.001771875 0.996774052335
453 1 -0.021853125 -0.00125 -0.000590625 1.0
454 1 -0.021853125 -0.00125 0.000590625 1.0
455 1 -0.021853125 -0.00125 0.001771875 0.996774052335
456 1 -0.021853125 -0.00125 0.002953125 0.999999398426
457 1 -0.021853125 -0.00125 0.004134375 0.999108981871
458 1 -0.021853125 -0.00125 0.005315625 0.975623214542
459 1 -0.021853125 -0.00125 0.006496875 0.678803742573
460 1 -0.021853125 -0.00125 0.007678125 0.372492797347
461 1 -0.021853125 -0.00125 0.008859375 0.423924351901
462 1 -0.021853125 -0.00125 0.010040625 0.482099221396
463 1 -0.021853125 -0.00125 0.011221875 0.620802377555
464 1 -0.021853125 -0.00125 0.012403125 0.764713248693
465 1 -0.021853125 -0.00125 0.013584375 0.61521440805
466 1 -0.021853125 -0.00125 0.014765625 4.52227625942e-06
467 1 -0.021853125 -0.00125 0.015946875 0.0509111013046
468 1 -0.021853125 -0.00125 0.017128125 0.281290170023
469 1 -0.021853125 -0.00125 0.018309375 0.123928325831
470 1 -0.021853125 -0.00125 0.019490625 1.74014005978e-11
471 1 -0.021853125 -0.00125 0.020671875 4.52220221462e-06
472 1 -0.021853125 -0.00125 0.021853125 0.000126658700522
473 1 -0.021853125 -0.00125 0.023034375 1.22156214432e-15
474 1 -0.021853125 -0.00125 0.024215625 0.0
475 1 -0.021853125 -0.00125 0.025396875 0.0
476 1 -0.021853125 -0.00125 0.026578125 7.69891724187e-05
477 1 -0.021853125 -0.00125 0.027759375 0.178504744508
478 1 -0.021853125 -0.00125 0.028940625 0.00466864259094
479 1 -0.020671875 -0.00125 -0.030121875 0.0
480 1 -0.020671875 -0.00125 -0.028940625 0.0
481 1 -0.020671875 -0.00125 -0.027759375 0.000126657572948
482 1 -0.020671875 -0.00125 -0.026578125 1.74014005978e-11
483 1 -0.020671875 -0.00125 -0.025396875 0.0
484 1 -0.020671875 -0.00125 -0.024215625 0.0
485 1 -0.020671875 -0.00125 -0.023034375 0.0
486 1 -0.020671875 -0.00125 -0.021853125 0.0
487 1 -0.020671875 -0.00125 -0.020671875 0.0
488 1 -0.020671875 -0.00125 -0.019490625 0.000126657572948
489 1 -0.020671875 -0.00125 -0.018309375 0.390374014268
490 1 -0.020671875 -0.00125 -0.017128125 0.0443322841124
491 1 -0.020671875 -0.00125 -0.015946875 4.52227625942e-06
492 1 -0.020671875 -0.00125 -0.014765625 4.52220221462e-06
493 1 -0.020671875 -0.00125 -0.013584375 0.249438537977
494 1 -0.020671875 -0.00125 -0.012403125 0.769047847884
495 1 -0.020671875 -0.00125 -0.011221875 0.769047847884
496 1 -0.020671875 -0.00125 -0.010040625 0.667673396678
497 1 -0.020671875 -0.00125 -0.008859375 0.60962547119
498 1 -0.020671875 -0.00125 -0.007678125 0.60962547119
499 1 -0.020671875 -0.00125 -0.006496875 0.89733566338
500 1 -0.020671875 -0.00125 -0.005315625 0.999999398426
501 1 -0.020671875 -0.00125 -0.004134375 0.99995573976
502 1 -0.020671875 -0.00125 -0.002953125 1.0
503 1 -0.020671875 -0.00125 -0.001771875 0.999303386257
504 1 -0.020671875 -0.00125 -0.000590625 0.999580688288
505 1 -0.020671875 -0.00125 0.000590625 0.999944365081
506 1 -0.020671875 -0.00125 0.001771875 0.999303386257
507 1 -0.020671875 -0.00125 0.002953125 1.0
508 1 -0.020671875 -0.00125 0.004134375 0.99995573976
509 1 -0.020671875 -0.00125 0.005315625 0.999999398426
510 1 -0.020671875 -0.00125 0.006496875 0.89733566338
511 1 -0.020671875 -0.00125 0.007678125 0.60962547119
512 1 -0.020671875 -0.00125 0.008859375 0.60962547119
513 1 -0.020671875 -0.00125 0.010040625 0.667673396678
514 1 -0.020671875 -0.00125 0.011221875 0.769047847884
515 1 -0.020671875 -0.00125 0.012403125 0.769047847884
516 1 -0.020671875 -0.00125 0.013584375 0.249438537977
517 1 -0.020671875 -0.00125 0.014765625 4.52220221462e-06
518 1 -0.020671875 -0.00125 0.015946875 4.52227625942e-06
519 1 -0.020671875 -0.00125 0.017128125 0.0443322841124
520 1 -0.020671875 -0.00125 0.018309375 0.390374014268
521 1 -0.020671875 -0.00125 0.019490625 0.000126657572948
522 1 -0.020671875 -0.00125 0.020671875 0.0
523 1 -0.020671875 -0.00125 0.021853125 0.0
524 1 -0.020671875 -0.00125 0.023034375 0.0
525 1 -0.020671875 -0.00125 0.024215625 0.0
526 1 -0.020671875 -0.00125 0.025396875 0.0
527 1 -0.020671875 -0.00125 0.026578125 1.74014005978e-11
528 1 -0.020671875 -0.00125 0.027759375 0.000126657572948
529 1 -0.020671875 -0.00125 0.028940625 0.0
530 1 -0.020671875 -0.00125 0.030121875 0.0
531 1 -0.019490625 -0.00125 -0.031303125 6.11616148643e-24
532 1 -0.019490625 -0.00125 -0.030121875 0.0
533 1 -0.019490625 -0.00125 -0.028940625 0.0
534 1 -0.019490625 -0.00125 -0.027759375 2.79378975481e-22
535 1 -0.019490625 -0.00125 -0.026578125 0.0
536 1 -0.019490625 -0.00125 -0.025396875 0.0
537 1 -0.019490625 -0.00125 -0.024215625 0.0
538 1 -0.019490625 -0.00125 -0.023034375 0.0
539 1 -0.019490625 -0.00125 -0.021853125 1.40785443464e-30
540 1 -0.019490625 -0.00125 -0.020671875 1.58379826604e-05
541 1 -0.019490625 -0.00125 -0.019490625 0.0738216383858
542 1 -0.019490625 -0.00125 -0.018309375 0.520138362897
543 1 -0.019490625 -0.00125 -0.017128125 0.0243767854583