ITEM: TIMESTEP
0
ITEM: NUMBER OF ATOMS
3080
ITEM: BOX BOUNDS ss ss ss
-3.7007399999999996e-02 3.7007399999999996e-02
-2.0002499999999999e-03 2.5000000000000004e-07
-3.7007399999999996e-02 3.7007399999999996e-02
ITEM: ATOMS id type x y z c_1
0 1 -0.037209375 -0.00125 -0.000590625 1.0
1 1 -0.036028125 -0.00125 -0.007678125 0.00920066229086
2 1 -0.036028125 -0.00125 -0.006496875 0.0
3 1 -0.036028125 -0.00125 -0.005315625 0.0
4 1 -0.036028125 -0.00125 -0.004134375 0.0
5 1 -0.036028125 -0.00125 -0.002953125 3.70458005324e-08
6 1 -0.036028125 -0.00125 -0.001771875 0.226627684957
7 1 -0.036028125 -0.00125 -0.000590625 0.232375684815
8 1 -0.036028125 -0.00125 0.000590625 0.0471094571118
9 1 -0.036028125 -0.00125 0.001771875 0.226627684957
10 1 -0.036028125 -0.00125 0.002953125 3.70458005324e-08
11 1 -0.036028125 -0.00125 0.004134375 0.0
12 1 -0.036028125 -0.00125 0.005315625 0.0
13 1 -0.036028125 -0.00125 0.006496875 0.0
14 1 -0.036028125 -0.00125 0.007678125 5.44412977554e-09
15 1 -0.034846875 -0.00125 -0.011221875 0.00920066229086
16 1 -0.034846875 -0.00125 -0.010040625 0.0
17 1 -0.034846875 -0.00125 -0.008859375 0.0648941709999
18 1 -0.034846875 -0.00125 -0.007678125 0.0151197556124
19 1 -0.034846875 -0.00125 -0.006496875 0.0
20 1 -0.034846875 -0.00125 -0.005315625 0.0
21 1 -0.034846875 -0.00125 -0.004134375 0.0
22 1 -0.034846875 -0.00125 -0.002953125 0.000299132858986
23 1 -0.034846875 -0.00125 -0.001771875 0.0698876476892
24 1 -0.034846875 -0.00125 -0.000590625 0.21372123369
25 1 -0.034846875 -0.00125 0.000590625 0.131597655573
26 1 -0.034846875 -0.00125 0.001771875 0.186171540908
27 1 -0.034846875 -0.00125 0.002953125 0.000126657572948
28 1 -0.034846875 -0.00125 0.004134375 0.0
29 1 -0.034846875 -0.00125 0.005315625 0.0
30 1 -0.034846875 -0.00125 0.006496875 0.0
31 1 -0.034846875 -0.00125 0.007678125 0.0
32 1 -0.034846875 -0.00125 0.008859375 2.56737690538e-12
33 1 -0.034846875 -0.00125 0.010040625 0.0
34 1 -0.034846875 -0.00125 0.011221875 0.00920066229086
35 1 -0.033665625 -0.00125 -0.013584375 0.0
36 1 -0.033665625 -0.00125 -0.012403125 0.320687946562
37 1 -0.033665625 -0.00125 -0.011221875 0.150411393909
38 1 -0.033665625 -0.00125 -0.010040625 0.000299132858986
39 1 -0.033665625 -0.00125 -0.008859375 6.01557630165e-07
40 1 -0.033665625 -0.00125 -0.007678125 0.0
41 1 -0.033665625 -0.00125 -0.006496875 0.0
42 1 -0.033665625 -0.00125 -0.005315625 0.0
43 1 -0.033665625 -0.00125 -0.004134375 0.0
44 1 -0.033665625 -0.00125 -0.002953125 0.000891017573599
45 1 -0.033665625 -0.00125 -0.001771875 0.0999860491522
46 1 -0.033665625 -0.00125 -0.000590625 0.17575893658
47 1 -0.033665625 -0.00125 0.000590625 0.0827704828178
48 1 -0.033665625 -0.00125 0.001771875 0.14929428164
49 1 -0.033665625 -0.00125 0.002953125 0.00474644221021
50 1 -0.033665625 -0.00125 0.004134375 1.74019667629e-11
51 1 -0.033665625 -0.00125 0.005315625 0.0
52 1 -0.033665625 -0.00125 0.006496875 0.0
53 1 -0.033665625 -0.00125 0.007678125 0.0
54 1 -0.033665625 -0.00125 0.008859375 0.0
55 1 -0.033665625 -0.00125 0.010040625 1.74019667629e-11
56 1 -0.033665625 -0.00125 0.011221875 0.112788508618
57 1 -0.033665625 -0.00125 0.012403125 0.320687946562
58 1 -0.033665625 -0.00125 0.013584375 0.0
59 1 -0.032484375 -0.00125 -0.018309375 5.44412977554e-09
60 1 -0.032484375 -0.00125 -0.017128125 0.0418564289367
61 1 -0.032484375 -0.00125 -0.015946875 0.116868972811
62 1 -0.032484375 -0.00125 -0.014765625 0.0645492436574
63 1 -0.032484375 -0.00125 -0.013584375 5.83927160305e-06
64 1 -0.032484375 -0.00125 -0.012403125 0.119202725418
65 1 -0.032484375 -0.00125 -0.011221875 0.191419372554
66 1 -0.032484375 -0.00125 -0.010040625 0.00284459054634
67 1 -0.032484375 -0.00125 -0.008859375 1.74019667629e-11
68 1 -0.032484375 -0.00125 -0.007678125 0.0
69 1 -0.032484375 -0.00125 -0.006496875 0.0
70 1 -0.032484375 -0.00125 -0.005315625 1.40785443464e-30
71 1 -0.032484375 -0.00125 -0.004134375 0.000375784453599
72 1 -0.032484375 -0.00125 -0.002953125 0.119202686097
73 1 -0.032484375 -0.00125 -0.001771875 0.114532075754
74 1 -0.032484375 -0.00125 -0.000590625 0.098213685311
75 1 -0.032484375 -0.00125 0.000590625 0.0396816757588
76 1 -0.032484375 -0.00125 0.001771875 0.189316849414
77 1 -0.032484375 -0.00125 0.002953125 0.107179814045
78 1 -0.032484375 -0.00125 0.004134375 0.000535659512892
79 1 -0.032484375 -0.00125 0.005315625 2.79378975481e-22
80 1 -0.032484375 -0.00125 0.006496875 0.0
81 1 -0.032484375 -0.00125 0.007678125 0.0
82 1 -0.032484375 -0.00125 0.008859375 0.0
83 1 -0.032484375 -0.00125 0.010040625 0.00855160113593
84 1 -0.032484375 -0.00125 0.011221875 0.258189948267
85 1 -0.032484375 -0.00125 0.012403125 0.0529663073376
86 1 -0.032484375 -0.00125 0.013584375 0.0
87 1 -0.032484375 -0.00125 0.014765625 0.0
88 1 -0.032484375 -0.00125 0.015946875 0.0
89 1 -0.032484375 -0.00125 0.017128125 0.00106278235535
90 1 -0.032484375 -0.00125 0.018309375 0.0
91 1 -0.031303125 -0.00125 -0.019490625 6.11616148643e-24
92 1 -0.031303125 -0.00125 -0.018309375 0.000245540111831
93 1 -0.031303125 -0.00125 -0.017128125 0.0
94 1 -0.031303125 -0.00125 -0.015946875 0.14929428164
95 1 -0.031303125 -0.00125 -0.014765625 0.361324541927
96 1 -0.031303125 -0.00125 -0.013584375 1.28754471296e-08
97 1 -0.031303125 -0.00125 -0.012403125 1.74019667629e-11
98 1 -0.031303125 -0.00125 -0.011221875 1.22156214432e-15
99 1 -0.031303125 -0.00125 -0.010040625 1.22156214432e-15
100 1 -0.031303125 -0.00125 -0.008859375 0.0
101 1 -0.031303125 -0.00125 -0.007678125 0.0
102 1 -0.031303125 -0.00125 -0.006496875 1.74019667629e-11
103 1 -0.031303125 -0.00125 -0.005315625 0.000126658700522
104 1 -0.031303125 -0.00125 -0.004134375 0.139391385346
105 1 -0.031303125 -0.00125 -0.002953125 0.196692230435
106 1 -0.031303125 -0.00125 -0.001771875 0.0216537239851
107 1 -0.031303125 -0.00125 -0.000590625 0.0272764965236
108 1 -0.031303125 -0.00125 0.000590625 0.0420689036939
109 1 -0.031303125 -0.00125 0.001771875 0.0827704828178
110 1 -0.031303125 -0.00125 0.002953125 0.0293069007767
111 1 -0.031303125 -0.00125 0.004134375 0.0175125972543
112 1 -0.031303125 -0.00125 0.005315625 6.01557630165e-07
113 1 -0.031303125 -0.00125 0.006496875 0.0
114 1 -0.031303125 -0.00125 0.007678125 0.0
115 1 -0.031303125 -0.00125 0.008859375 0.0
116 1 -0.031303125 -0.00125 0.010040625 0.00154813293271
117 1 -0.031303125 -0.00125 0.011221875 0.00474645121499
118 1 -0.031303125 -0.00125 0.012403125 0.000126657572948
119 1 -0.031303125 -0.00125 0.013584375 2.79378975481e-22
120 1 -0.031303125 -0.00125 0.014765625 0.0
121 1 -0.031303125 -0.00125 0.015946875 0.0
122 1 -0.031303125 -0.00125 0.017128125 0.00154813293271
123 1 -0.031303125 -0.00125 0.018309375 0.019545473199
124 1 -0.031303125 -0.00125 0.019490625 0.0
125 1 -0.030121875 -0.00125 -0.020671875 0.0
126 1 -0.030121875 -0.00125 -0.019490625 0.0
127 1 -0.030121875 -0.00125 -0.018309375 0.0
128 1 -0.030121875 -0.00125 -0.017128125 0.0
129 1 -0.030121875 -0.00125 -0.015946875 0.0698876476892
130 1 -0.030121875 -0.00125 -0.014765625 0.540277181315
131 1 -0.030121875 -0.00125 -0.013584375 1.58378774223e-05
132 1 -0.030121875 -0.00125 -0.012403125 0.0
133 1 -0.030121875 -0.00125 -0.011221875 0.0
134 1 -0.030121875 -0.00125 -0.010040625 0.0
135 1 -0.030121875 -0.00125 -0.008859375 0.0
136 1 -0.030121875 -0.00125 -0.007678125 0.0
137 1 -0.030121875 -0.00125 -0.006496875 2.79378975481e-22
138 1 -0.030121875 -0.00125 -0.005315625 1.74019667629e-11
139 1 -0.030121875 -0.00125 -0.004134375 0.00154813293271
140 1 -0.030121875 -0.00125 -0.002953125 0.00154813293271
141 1 -0.030121875 -0.00125 -0.001771875 4.52220221462e-06
142 1 -0.030121875 -0.00125 -0.000590625 0.00154812961495
143 1 -0.030121875 -0.00125 0.000590625 0.0912340687489
144 1 -0.030121875 -0.00125 0.001771875 0.0347170643937
145 1 -0.030121875 -0.00125 0.002953125 1.74019667629e-11
146 1 -0.030121875 -0.00125 0.004134375 4.52220221462e-06
147 1 -0.030121875 -0.00125 0.005315625 4.52220221462e-06
148 1 -0.030121875 -0.00125 0.006496875 2.79378975481e-22
149 1 -0.030121875 -0.00125 0.007678125 0.0
150 1 -0.030121875 -0.00125 0.008859375 0.0
151 1 -0.030121875 -0.00125 0.010040625 6.01557630165e-07
152 1 -0.030121875 -0.00125 0.011221875 0.000126657572948
153 1 -0.030121875 -0.00125 0.012403125 4.52220221462e-06
154 1 -0.030121875 -0.00125 0.013584375 0.0
155 1 -0.030121875 -0.00125 0.014765625 0.0
156 1 -0.030121875 -0.00125 0.015946875 0.0
157 1 -0.030121875 -0.00125 0.017128125 0.091233852548
158 1 -0.030121875 -0.00125 0.018309375 0.14929428164
159 1 -0.030121875 -0.00125 0.019490625 3.14925560351e-13
160 1 -0.030121875 -0.00125 0.020671875 0.0
161 1 -0.028940625 -0.00125 -0.021853125 0.0
162 1 -0.028940625 -0.00125 -0.020671875 0.0
163 1 -0.028940625 -0.00125 -0.019490625 0.0
164 1 -0.028940625 -0.00125 -0.018309375 0.0
165 1 -0.028940625 -0.00125 -0.017128125 0.0
166 1 -0.028940625 -0.00125 -0.015946875 0.00474645121499
167 1 -0.028940625 -0.00125 -0.014765625 0.522376039939
168 1 -0.028940625 -0.00125 -0.013584375 0.00855155891876
169 1 -0.028940625 -0.00125 -0.012403125 0.0
170 1 -0.028940625 -0.00125 -0.011221875 0.0
171 1 -0.028940625 -0.00125 -0.010040625 0.0
172 1 -0.028940625 -0.00125 -0.008859375 0.0
173 1 -0.028940625 -0.00125 -0.007678125 0.0
174 1 -0.028940625 -0.00125 -0.006496875 0.0
175 1 -0.028940625 -0.00125 -0.005315625 0.0
176 1 -0.028940625 -0.00125 -0.004134375 4.52220221462e-06
177 1 -0.028940625 -0.00125 -0.002953125 4.52220221462e-06
178 1 -0.028940625 -0.00125 -0.001771875 0.00906545268845
179 1 -0.028940625 -0.00125 -0.000590625 0.0216537239851
180 1 -0.028940625 -0.00125 0.000590625 0.000198679422043
181 1 -0.028940625 -0.00125 0.001771875 6.01557630165e-07
182 1 -0.028940625 -0.00125 0.002953125 0.000299131636816
183 1 -0.028940625 -0.00125 0.004134375 0.000299131636816
184 1 -0.028940625 -0.00125 0.005315625 0.0
185 1 -0.028940625 -0.00125 0.006496875 0.00118682600863
186 1 -0.028940625 -0.00125 0.007678125 0.00249557400626
187 1 -0.028940625 -0.00125 0.008859375 1.74019667629e-11
188 1 -0.028940625 -0.00125 0.010040625 1.74019667629e-11
189 1 -0.028940625 -0.00125 0.011221875 0.0
190 1 -0.028940625 -0.00125 0.012403125 0.0
191 1 -0.028940625 -0.00125 0.013584375 0.0
192 1 -0.028940625 -0.00125 0.014765625 0.0
193 1 -0.028940625 -0.00125 0.015946875 0.0
194 1 -0.028940625 -0.00125 0.017128125 0.123928325831
195 1 -0.028940625 -0.00125 0.018309375 0.175758893257
196 1 -0.028940625 -0.00125 0.019490625 0.0
197 1 -0.028940625 -0.00125 0.020671875 1.61610918776e-06
198 1 -0.028940625 -0.00125 0.021853125 0.00466864259094
199 1 -0.027759375 -0.00125 -0.024215625 0.0
200 1 -0.027759375 -0.00125 -0.023034375 0.0
201 1 -0.027759375 -0.00125 -0.021853125 0.0
202 1 -0.027759375 -0.00125 -0.020671875 0.0
203 1 -0.027759375 -0.00125 -0.019490625 2.79378975481e-22
204 1 -0.027759375 -0.00125 -0.018309375 0.0
205 1 -0.027759375 -0.00125 -0.017128125 0.0
206 1 -0.027759375 -0.00125 -0.015946875 0.00668184101894
207 1 -0.027759375 -0.00125 -0.014765625 0.310081568404
208 1 -0.027759375 -0.00125 -0.013584375 0.036431516761
209 1 -0.027759375 -0.00125 -0.012403125 0.0
210 1 -0.027759375 -0.00125 -0.011221875 0.0
211 1 -0.027759375 -0.00125 -0.010040625 0.0
212 1 -0.027759375 -0.00125 -0.008859375 0.0
213 1 -0.027759375 -0.00125 -0.007678125 0.0
214 1 -0.027759375 -0.00125 -0.006496875 1.40785443464e-30
215 1 -0.027759375 -0.00125 -0.005315625 0.0
216 1 -0.027759375 -0.00125 -0.004134375 1.74019667629e-11
217 1 -0.027759375 -0.00125 -0.002953125 0.000299131636816
218 1 -0.027759375 -0.00125 -0.001771875 0.00154812961495
219 1 -0.027759375 -0.00125 -0.000590625 0.00154812961495
220 1 -0.027759375 -0.00125 0.000590625 0.00154812961495
221 1 -0.027759375 -0.00125 0.001771875 0.0175125972543
222 1 -0.027759375 -0.00125 0.002953125 0.01386971523
223 1 -0.027759375 -0.00125 0.004134375 6.01557630165e-07
224 1 -0.027759375 -0.00125 0.005315625 0.00474645121499
225 1 -0.027759375 -0.00125 0.006496875 0.0381873764716
226 1 -0.027759375 -0.00125 0.007678125 0.00249557400626
227 1 -0.027759375 -0.00125 0.008859375 0.0
228 1 -0.027759375 -0.00125 0.010040625 0.0
229 1 -0.027759375 -0.00125 0.011221875 0.0
230 1 -0.027759375 -0.00125 0.012403125 0.0
231 1 -0.027759375 -0.00125 0.013584375 0.0
232 1 -0.027759375 -0.00125 0.014765625 0.0
233 1 -0.027759375 -0.00125 0.015946875 0.0
234 1 -0.027759375 -0.00125 0.017128125 0.14929428164
235 1 -0.027759375 -0.00125 0.018309375 0.14929428164
236 1 -0.027759375 -0.00125 0.019490625 0.0
237 1 -0.027759375 -0.00125 0.020671875 0.0
238 1 -0.027759375 -0.00125 0.021853125 1.61610918776e-06
239 1 -0.027759375 -0.00125 0.023034375 0.00106278235535
240 1 -0.027759375 -0.00125 0.024215625 0.0
241 1 -0.026578125 -0.00125 -0.026578125 0.0
242 1 -0.026578125 -0.00125 -0.025396875 0.0
243 1 -0.026578125 -0.00125 -0.024215625 0.0
244 1 -0.026578125 -0.00125 -0.023034375 1.28754471296e-08
245 1 -0.026578125 -0.00125 -0.021853125 3.07879020573e-05
246 1 -0.026578125 -0.00125 -0.020671875 0.000198679956635
247 1 -0.026578125 -0.00125 -0.019490625 7.83323180008e-10
248 1 -0.026578125 -0.00125 -0.018309375 2.79378975481e-22
249 1 -0.026578125 -0.00125 -0.017128125 2.79378975481e-22
250 1 -0.026578125 -0.00125 -0.015946875 1.58378774223e-05
251 1 -0.026578125 -0.00125 -0.014765625 0.159359255263
252 1 -0.026578125 -0.00125 -0.013584375 0.156828713884
253 1 -0.026578125 -0.00125 -0.012403125 0.0
254 1 -0.026578125 -0.00125 -0.011221875 1.40785443464e-30
255 1 -0.026578125 -0.00125 -0.010040625 1.28754471296e-08
256 1 -0.026578125 -0.00125 -0.008859375 4.42611058234e-05
257 1 -0.026578125 -0.00125 -0.007678125 0.0324964186553
258 1 -0.026578125 -0.00125 -0.006496875 0.0540075473606
259 1 -0.026578125 -0.00125 -0.005315625 0.0515921386493
260 1 -0.026578125 -0.00125 -0.004134375 0.0324964300741
261 1 -0.026578125 -0.00125 -0.002953125 0.0199376306027
262 1 -0.026578125 -0.00125 -0.001771875 0.0352839698423
263 1 -0.026578125 -0.00125 -0.000590625 0.072237711262
264 1 -0.026578125 -0.00125 0.000590625 0.131597898254
265 1 -0.026578125 -0.00125 0.001771875 0.072237711262
266 1 -0.026578125 -0.00125 0.002953125 0.0282820477673
267 1 -0.026578125 -0.00125 0.004134375 0.0308802609667
268 1 -0.026578125 -0.00125 0.005315625 0.00932952277752
269 1 -0.026578125 -0.00125 0.006496875 0.000126658074091
270 1 -0.026578125 -0.00125 0.007678125 0.0
271 1 -0.026578125 -0.00125 0.008859375 0.0
272 1 -0.026578125 -0.00125 0.010040625 0.0
273 1 -0.026578125 -0.00125 0.011221875 0.0
274 1 -0.026578125 -0.00125 0.012403125 0.0
275 1 -0.026578125 -0.00125 0.013584375 0.0
276 1 -0.026578125 -0.00125 0.014765625 0.0
277 1 -0.026578125 -0.00125 0.015946875 0.000126657572948
278 1 -0.026578125 -0.00125 0.017128125 0.238544232212
279 1 -0.026578125 -0.00125 0.018309375 0.119202686097
280 1 -0.026578125 -0.00125 0.019490625 0.0
281 1 -0.026578125 -0.00125 0.020671875 0.0
282 1 -0.026578125 -0.00125 0.021853125 2.79378975481e-22
283 1 -0.026578125 -0.00125 0.023034375 1.74019667629e-11
284 1 -0.026578125 -0.00125 0.024215625 0.0
285 1 -0.026578125 -0.00125 0.025396875 0.0
286 1 -0.026578125 -0.00125 0.026578125 0.0
287 1 -0.025396875 -0.00125 -0.026578125 0.0
288 1 -0.025396875 -0.00125 -0.025396875 0.0
289 1 -0.025396875 -0.00125 -0.024215625 6.01557630165e-07
290 1 -0.025396875 -0.00125 -0.023034375 0.000126658700522
291 1 -0.025396875 -0.00125 -0.021853125 0.00474645121499
292 1 -0.025396875 -0.00125 -0.020671875 0.0138696939255
293 1 -0.025396875 -0.00125 -0.019490625 0.000535660654302
294 1 -0.025396875 -0.00125 -0.018309375 1.74019667629e-11
295 1 -0.025396875 -0.00125 -0.017128125 1.74019667629e-11
296 1 -0.025396875 -0.00125 -0.015946875 0.0
297 1 -0.025396875 -0.00125 -0.014765625 0.00474645121499
298 1 -0.025396875 -0.00125 -0.013584375 0.366908379458
299 1 -0.025396875 -0.00125 -0.012403125 0.00249557400626
300 1 -0.025396875 -0.00125 -0.011221875 0.0381872278205
301 1 -0.025396875 -0.00125 -0.010040625 0.0550579642476
302 1 -0.025396875 -0.00125 -0.008859375 0.0827704828178
303 1 -0.025396875 -0.00125 -0.007678125 0.0243767952624
304 1 -0.025396875 -0.00125 -0.006496875 1.77731074088e-06
305 1 -0.025396875 -0.00125 -0.005315625 0.0443323240644
306 1 -0.025396875 -0.00125 -0.004134375 0.010721438861
307 1 -0.025396875 -0.00125 -0.002953125 0.00154812961495
308 1 -0.025396875 -0.00125 -0.001771875 0.00668182974929
309 1 -0.025396875 -0.00125 -0.000590625 0.00668184101894
310 1 -0.025396875 -0.00125 0.000590625 0.00349873817525
311 1 -0.025396875 -0.00125 0.001771875 0.00668184101894
312 1 -0.025396875 -0.00125 0.002953125 0.00154812961495
313 1 -0.025396875 -0.00125 0.004134375 0.000126657572948
314 1 -0.025396875 -0.00125 0.005315625 1.74019667629e-11
315 1 -0.025396875 -0.00125 0.006496875 0.0
316 1 -0.025396875 -0.00125 0.007678125 0.0
317 1 -0.025396875 -0.00125 0.008859375 0.0
318 1 -0.025396875 -0.00125 0.010040625 0.0
319 1 -0.025396875 -0.00125 0.011221875 0.0
320 1 -0.025396875 -0.00125 0.012403125 0.0
321 1 -0.025396875 -0.00125 0.013584375 0.0
322 1 -0.025396875 -0.00125 0.014765625 0.0
323 1 -0.025396875 -0.00125 0.015946875 0.01386971523
324 1 -0.025396875 -0.00125 0.017128125 0.540276619563
325 1 -0.025396875 -0.00125 0.018309375 0.133535038668
326 1 -0.025396875 -0.00125 0.019490625 0.0
327 1 -0.025396875 -0.00125 0.020671875 0.000126658700522
328 1 -0.025396875 -0.00125 0.021853125 6.01557630165e-07
329 1 -0.025396875 -0.00125 0.023034375 6.01557630165e-07
330 1 -0.025396875 -0.00125 0.024215625 0.000126657572948
331 1 -0.025396875 -0.00125 0.025396875 0.0
332 1 -0.025396875 -0.00125 0.026578125 0.0
333 1 -0.024215625 -0.00125 -0.027759375 0.0
334 1 -0.024215625 -0.00125 -0.026578125 0.0
335 1 -0.024215625 -0.00125 -0.025396875 0.0
336 1 -0.024215625 -0.00125 -0.024215625 0.0
337 1 -0.024215625 -0.00125 -0.023034375 6.01557630165e-07
338 1 -0.024215625 -0.00125 -0.021853125 0.00474645121499
339 1 -0.024215625 -0.00125 -0.020671875 0.0138696939255
340 1 -0.024215625 -0.00125 -0.019490625 0.00565998798415
341 1 -0.024215625 -0.00125 -0.018309375 0.00154813293271
342 1 -0.024215625 -0.00125 -0.017128125 0.000126658700522
343 1 -0.024215625 -0.00125 -0.015946875 1.74019667629e-11
344 1 -0.024215625 -0.00125 -0.014765625 0.0138696939255
345 1 -0.024215625 -0.00125 -0.013584375 0.330099489909
346 1 -0.024215625 -0.00125 -0.012403125 0.0138696939255
347 1 -0.024215625 -0.00125 -0.011221875 0.0293069224194
348 1 -0.024215625 -0.00125 -0.010040625 0.010721438861
349 1 -0.024215625 -0.00125 -0.008859375 0.01386971523
350 1 -0.024215625 -0.00125 -0.007678125 6.01557630165e-07
351 1 -0.024215625 -0.00125 -0.006496875 1.60797611259e-09
352 1 -0.024215625 -0.00125 -0.005315625 0.000891023127979
353 1 -0.024215625 -0.00125 -0.004134375 6.01557630165e-07
354 1 -0.024215625 -0.00125 -0.002953125 0.000126658700522
355 1 -0.024215625 -0.00125 -0.001771875 0.000126657572948
356 1 -0.024215625 -0.00125 -0.000590625 4.42606186288e-05
357 1 -0.024215625 -0.00125 0.000590625 1.18026294841e-10
358 1 -0.024215625 -0.00125 0.001771875 1.22156214432e-15
359 1 -0.024215625 -0.00125 0.002953125 1.22156214432e-15
360 1 -0.024215625 -0.00125 0.004134375 1.22156214432e-15
361 1 -0.024215625 -0.00125 0.005315625 0.0
362 1 -0.024215625 -0.00125 0.006496875 0.0
363 1 -0.024215625 -0.00125 0.007678125 0.0
364 1 -0.024215625 -0.00125 0.008859375 0.0
365 1 -0.024215625 -0.00125 0.010040625 0.0
366 1 -0.024215625 -0.00125 0.011221875 1.74019667629e-11
367 1 -0.024215625 -0.00125 0.012403125 0.0
368 1 -0.024215625 -0.00125 0.013584375 0.0
369 1 -0.024215625 -0.00125 0.014765625 0.0
370 1 -0.024215625 -0.00125 0.015946875 0.0698876476892
371 1 -0.024215625 -0.00125 0.017128125 0.753835388852
372 1 -0.024215625 -0.00125 0.018309375 0.0443322841124
373 1 -0.024215625 -0.00125 0.019490625 0.0
374 1 -0.024215625 -0.00125 0.020671875 0.000126658700522
375 1 -0.024215625 -0.00125 0.021853125 0.00154813293271
376 1 -0.024215625 -0.00125 0.023034375 0.000891017573599
377 1 -0.024215625 -0.00125 0.024215625 0.00474645121499
378 1 -0.024215625 -0.00125 0.025396875 0.000126658700522
379 1 -0.024215625 -0.00125 0.026578125 0.0
380 1 -0.024215625 -0.00125 0.027759375 0.0
381 1 -0.023034375 -0.00125 -0.027759375 0.00106278235535
382 1 -0.023034375 -0.00125 -0.026578125 2.79378975481e-22
383 1 -0.023034375 -0.00125 -0.025396875 0.0
384 1 -0.023034375 -0.00125 -0.024215625 0.0
385 1 -0.023034375 -0.00125 -0.023034375 6.01557630165e-07
386 1 -0.023034375 -0.00125 -0.021853125 0.000126658700522
387 1 -0.023034375 -0.00125 -0.020671875 0.000126658700522
388 1 -0.023034375 -0.00125 -0.019490625 0.0207856853608
389 1 -0.023034375 -0.00125 -0.018309375 0.0138696939255
390 1 -0.023034375 -0.00125 -0.017128125 0.00154813293271
391 1 -0.023034375 -0.00125 -0.015946875 1.74019667629e-11
392 1 -0.023034375 -0.00125 -0.014765625 1.22156214432e-15
393 1 -0.023034375 -0.00125 -0.013584375 0.205179062488
394 1 -0.023034375 -0.00125 -0.012403125 0.00474645121499
395 1 -0.023034375 -0.00125 -0.011221875 0.0243767756543
396 1 -0.023034375 -0.00125 -0.010040625 0.000891017573599
397 1 -0.023034375 -0.00125 -0.008859375 4.42606186288e-05
398 1 -0.023034375 -0.00125 -0.007678125 0.0032259559905
399 1 -0.023034375 -0.00125 -0.006496875 0.00441041577602
400 1 -0.023034375 -0.00125 -0.005315625 0.0964521350783
401 1 -0.023034375 -0.00125 -0.004134375 0.139391385346
402 1 -0.023034375 -0.00125 -0.002953125 0.21372123369
403 1 -0.023034375 -0.00125 -0.001771875 0.0999860491522
404 1 -0.023034375 -0.00125 -0.000590625 0.0293069007767
405 1 -0.023034375 -0.00125 0.000590625 4.52223923689e-06
406 1 -0.023034375 -0.00125 0.001771875 4.52220221462e-06
407 1 -0.023034375 -0.00125 0.002953125 0.000126657572948
408 1 -0.023034375 -0.00125 0.004134375 0.000126657572948
409 1 -0.023034375 -0.00125 0.005315625 0.0
410 1 -0.023034375 -0.00125 0.006496875 0.0
411 1 -0.023034375 -0.00125 0.007678125 1.74019667629e-11
412 1 -0.023034375 -0.00125 0.008859375 0.000126657572948
413 1 -0.023034375 -0.00125 0.010040625 1.74019667629e-11
414 1 -0.023034375 -0.00125 0.011221875 1.74019667629e-11
415 1 -0.023034375 -0.00125 0.012403125 1.74019667629e-11
416 1 -0.023034375 -0.00125 0.013584375 0.0
417 1 -0.023034375 -0.00125 0.014765625 0.0
418 1 -0.023034375 -0.00125 0.015946875 0.14929428164
419 1 -0.023034375 -0.00125 0.017128125 0.459723333625
420 1 -0.023034375 -0.00125 0.018309375 6.01557630165e-07
421 1 -0.023034375 -0.00125 0.019490625 2.79378975481e-22
422 1 -0.023034375 -0.00125 0.020671875 0.000126658700522
423 1 -0.023034375 -0.00125 0.021853125 0.0138696939255
424 1 -0.023034375 -0.00125 0.023034375 0.00154813293271
425 1 -0.023034375 -0.00125 0.024215625 0.00474645121499
426 1 -0.023034375 -0.00125 0.025396875 0.00474645121499
427 1 -0.023034375 -0.00125 0.026578125 2.79378975481e-22
428 1 -0.023034375 -0.00125 0.027759375 5.44412977554e-09
429 1 -0.021853125 -0.00125 -0.028940625 0.00466864259094
430 1 -0.021853125 -0.00125 -0.027759375 0.00255490305485
431 1 -0.021853125 -0.00125 -0.026578125 0.0
432 1 -0.021853125 -0.00125 -0.025396875 0.0
433 1 -0.021853125 -0.00125 -0.024215625 0.0
434 1 -0.021853125 -0.00125 -0.023034375 0.0
435 1 -0.021853125 -0.00125 -0.021853125 0.0
436 1 -0.021853125 -0.00125 -0.020671875 0.000126658700522
437 1 -0.021853125 -0.00125 -0.019490625 0.0207856853608
438 1 -0.021853125 -0.00125 -0.018309375 0.0138696939255
439 1 -0.021853125 -0.00125 -0.017128125 0.00154813293271
440 1 -0.021853125 -0.00125 -0.015946875 0.000126658700522
441 1 -0.021853125 -0.00125 -0.014765625 0.0
442 1 -0.021853125 -0.00125 -0.013584375 0.258190177523
443 1 -0.021853125 -0.00125 -0.012403125 0.0999860491522
444 1 -0.021853125 -0.00125 -0.011221875 0.0550579642476
445 1 -0.021853125 -0.00125 -0.010040625 0.0964521350783
446 1 -0.021853125 -0.00125 -0.008859375 0.0827704828178
447 1 -0.021853125 -0.00125 -0.007678125 0.0827704828178
448 1 -0.021853125 -0.00125 -0.006496875 0.114531900931
449 1 -0.021853125 -0.00125 -0.005315625 0.129668570718
450 1 -0.021853125 -0.00125 -0.004134375 0.186171540908
451 1 -0.021853125 -0.00125 -0.002953125 0.470910937833
452 1 -0.021853125 -0.00125 -0.001771875 0.419450043018
453 1 -0.021853125 -0.00125 -0.000590625 0.246165113069
454 1 -0.021853125 -0.00125 0.000590625 0.036431516761
455 1 -0.021853125 -0.00125 0.001771875 0.0827704306511
456 1 -0.021853125 -0.00125 0.002953125 0.179910475405
457 1 -0.021853125 -0.00125 0.004134375 0.0243767952624
458 1 -0.021853125 -0.00125 0.005315625 0.0243767952624
459 1 -0.021853125 -0.00125 0.006496875 0.0107214510125
460 1 -0.021853125 -0.00125 0.007678125 0.0443322841124
461 1 -0.021853125 -0.00125 0.008859375 0.159358746116
462 1 -0.021853125 -0.00125 0.010040625 0.0622852495443
463 1 -0.021853125 -0.00125 0.011221875 1.74019667629e-11
464 1 -0.021853125 -0.00125 0.012403125 1.74019667629e-11
465 1 -0.021853125 -0.00125 0.013584375 0.0
466 1 -0.021853125 -0.00125 0.014765625 0.0
467 1 -0.021853125 -0.00125 0.015946875 0.186171540908
468 1 -0.021853125 -0.00125 0.017128125 0.21372123369
469 1 -0.021853125 -0.00125 0.018309375 1.74019667629e-11
470 1 -0.021853125 -0.00125 0.019490625 1.77731074088e-06
471 1 -0.021853125 -0.00125 0.020671875 0.00154813293271
472 1 -0.021853125 -0.00125 0.021853125 0.00474645121499
473 1 -0.021853125 -0.00125 0.023034375 0.0138696939255
474 1 -0.021853125 -0.00125 0.024215625 0.00474645121499
475 1 -0.021853125 -0.00125 0.025396875 0.000126658700522
476 1 -0.021853125 -0.00125 0.026578125 3.14925560351e-13
477 1 -0.021853125 -0.00125 0.027759375 0.0
478 1 -0.021853125 -0.00125 0.028940625 2.52587523623e-07
479 1 -0.020671875 -0.00125 -0.030121875 0.0
480 1 -0.020671875 -0.00125 -0.028940625 0.000245540111831
481 1 -0.020671875 -0.00125 -0.027759375 0.0
482 1 -0.020671875 -0.00125 -0.026578125 0.0
483 1 -0.020671875 -0.00125 -0.025396875 0.0
484 1 -0.020671875 -0.00125 -0.024215625 0.0
485 1 -0.020671875 -0.00125 -0.023034375 0.0
486 1 -0.020671875 -0.00125 -0.021853125 0.0
487 1 -0.020671875 -0.00125 -0.020671875 0.000126658700522
488 1 -0.020671875 -0.00125 -0.019490625 0.0509111013046
489 1 -0.020671875 -0.00125 -0.018309375 0.0138696939255
490 1 -0.020671875 -0.00125 -0.017128125 0.0138696939255
491 1 -0.020671875 -0.00125 -0.015946875 0.000126658700522
492 1 -0.020671875 -0.00125 -0.014765625 1.74019667629e-11
493 1 -0.020671875 -0.00125 -0.013584375 0.326760147843
494 1 -0.020671875 -0.00125 -0.012403125 0.123928325831
495 1 -0.020671875 -0.00125 -0.011221875 0.00668182974929
496 1 -0.020671875 -0.00125 -0.010040625 0.0243767952624
497 1 -0.020671875 -0.00125 -0.008859375 0.0698876476892
498 1 -0.020671875 -0.00125 -0.007678125 0.00474644221021
499 1 -0.020671875 -0.00125 -0.006496875 0.0529662928778
500 1 -0.020671875 -0.00125 -0.005315625 0.0381872278205
501 1 -0.020671875 -0.00125 -0.004134375 0.0698876476892
502 1 -0.020671875 -0.00125 -0.002953125 0.372493358291
503 1 -0.020671875 -0.00125 -0.001771875 0.224469737872
504 1 -0.020671875 -0.00125 -0.000590625 0.383667992273
505 1 -0.020671875 -0.00125 0.000590625 0.301204661862
506 1 -0.020671875 -0.00125 0.001771875 0.441823107051
507 1 -0.020671875 -0.00125 0.002953125 0.39037452881
508 1 -0.020671875 -0.00125 0.004134375 0.372493358291
509 1 -0.020671875 -0.00125 0.005315625 0.281290216208
510 1 -0.020671875 -0.00125 0.006496875 0.238544232212
511 1 -0.020671875 -0.00125 0.007678125 0.332326556717
512 1 -0.020671875 -0.00125 0.008859375 0.383667992273
513 1 -0.020671875 -0.00125 0.010040625 0.372493358291
514 1 -0.020671875 -0.00125 0.011221875 0.091233852548
515 1 -0.020671875 -0.00125 0.012403125 6.01557630165e-07
516 1 -0.020671875 -0.00125 0.013584375 2.79378975481e-22
517 1 -0.020671875 -0.00125 0.014765625 0.0
518 1 -0.020671875 -0.00125 0.015946875 0.186171540908
519 1 -0.020671875 -0.00125 0.017128125 0.186171540908
520 1 -0.020671875 -0.00125 0.018309375 6.01557630165e-07
521 1 -0.020671875 -0.00125 0.019490625 0.000535662176186
522 1 -0.020671875 -0.00125 0.020671875 0.0138696939255
523 1 -0.020671875 -0.00125 0.021853125 0.0138696939255
524 1 -0.020671875 -0.00125 0.023034375 0.00474645121499
525 1 -0.020671875 -0.00125 0.024215625 0.00154813293271
526 1 -0.020671875 -0.00125 0.025396875 6.01557630165e-07
527 1 -0.020671875 -0.00125 0.026578125 0.0
528 1 -0.020671875 -0.00125 0.027759375 0.0
529 1 -0.020671875 -0.00125 0.028940625 0.0
530 1 -0.020671875 -0.00125 0.030121875 0.0
531 1 -0.019490625 -0.00125 -0.031303125 0.0
532 1 -0.019490625 -0.00125 -0.030121875 0.0
533 1 -0.019490625 -0.00125 -0.028940625 1.74019667629e-11
534 1 -0.019490625 -0.00125 -0.027759375 3.07880835211e-05
535 1 -0.019490625 -0.00125 -0.026578125 7.49709589486e-44
536 1 -0.019490625 -0.00125 -0.025396875 0.0
537 1 -0.019490625 -0.00125 -0.024215625 0.0
538 1 -0.019490625 -0.00125 -0.023034375 0.0
539 1 -0.019490625 -0.00125 -0.021853125 0.0
540 1 -0.019490625 -0.00125 -0.020671875 1.28754471296e-08
541 1 -0.019490625 -0.00125 -0.019490625 0.00284458545617
542 1 -0.019490625 -0.00125 -0.018309375 0.0293069007767
543 1 -0.019490625 -0.00125 -0.017128125 0.0267810506
544 1 -0.019490625 -0.00125 -0.015946875 0.00565998798415
545 1 -0.019490625 -0.00125 -0.014765625 0.0156289371363
546 1 -0.019490625 -0.00125 -0.013584375 0.266420774516
547 1 -0.019490625 -0.00125 -0.012403125 0.243984638945
548 1 -0.019490625 -0.00125 -0.011221875 0.00154812546777
549 1 -0.019490625 -0.00125 -0.010040625 0.00154812961495
550 1 -0.019490625 -0.00125 -0.008859375 0.0293069657047
551 1 -0.019490625 -0.00125 -0.007678125 0.0698875988491
552 1 -0.019490625 -0.00125 -0.006496875 0.141358408474
553 1 -0.019490625 -0.00125 -0.005315625 0.224469737872
554 1 -0.019490625 -0.00125 -0.004134375 0.297879684496
555 1 -0.019490625 -0.00125 -0.002953125 0.266970044988
556 1 -0.019490625 -0.00125 -0.001771875 0.172658474079
557 1 -0.019490625 -0.00125 -0.000590625 0.0669943990265
558 1 -0.019490625 -0.00125 0.000590625 0.0859511346179
559 1 -0.019490625 -0.00125 0.001771875 0.0778406068889
560 1 -0.019490625 -0.00125 0.002953125 0.151294576826
561 1 -0.019490625 -0.00125 0.004134375 0.201989893009