LAMMPS (17 Nov 2015)
WARNING: OMP_NUM_THREADS environment is not set. (../comm.cpp:90)
  using 1 OpenMP thread(s) per MPI task
# DEFINE NUMBER OF X,Z STEPS
# l = velocity k = indenter radius i, j = hiting location
variable imax equal 15
variable kmax equal 1
variable lmax equal 1
variable jmax equal 1
variable jstart equal 5
variable jrate equal 5
variable countstart equal 2325
variable countmax equal "v_jrate*v_imax*(v_imax+1)/2 + v_jstart*v_imax"

# DEFINE TOTAL NUMBER OF STEPS
variable count loop ${countmax}
variable count loop 675

print "imax = ${imax}"
imax = 15
print "jmax = ${jmax}"
jmax = 1
print "kmax = ${kmax}"
kmax = 1
print "lmax = ${lmax}"
lmax = 1

# START LOOPS
# Loop 1
label start_of_loop_1
variable l loop ${lmax}
variable l loop 1

# Loop 2
label start_of_loop_2
variable k loop ${kmax}
variable k loop 1

# Loop 3
label start_of_loop_3
variable i loop ${imax}
variable i loop 15

variable jmax equal "5*v_i"

print "imax = ${imax}"
imax = 15
print "jmax = ${jmax}"
jmax = 5

# Loop 4
label start_of_loop_4
variable j loop ${jmax}
variable j loop 5
clear
WARNING: OMP_NUM_THREADS environment is not set. (../comm.cpp:90)
  using 1 OpenMP thread(s) per MPI task

# DEFINE INITIAL CONDITIONS
# small Peridynamic cylinder hit by projectile
units		si
boundary        s s s
dimension	3
atom_style      peri
atom_modify	map array
neighbor        0.0010 bin

# small target
lattice         sc 0.001
Lattice spacing in x,y,z = 0.001 0.001 0.001
region          target cylinder y 0.0 0.0 0.037 -0.0025 0.0 units box
create_box      1 target
Created orthogonal box = (-0.037 -0.0025 -0.037) to (0.037 0 0.037)
  1 by 1 by 1 MPI processor grid
create_atoms    1 region target
Created 12855 atoms

pair_style      peri/pmb
pair_coeff      * * 1.6863e22 0.0015001 0.0005 0.25
set             group all density 2200
  12855 settings made for density
set             group all volume 1.25e-10
  12855 settings made for volume
velocity        all set 0.0 0.0 0.0 sum no units box
fix             1 all nve
fix             2 all indent 1e16 sphere v_x v_y v_z v_w units box


print "Iteration:  i = $i , j = $j, k = $k, l = $l "
Iteration:  i = 1 , j = 1, k = 1, l = 1 

print " "
 
print " "
 
print "----------------------------------------------------------------"
----------------------------------------------------------------
print "Iteration ${count} of ${countmax}"
Iteration 1 of 675
print "----------------------------------------------------------------"
----------------------------------------------------------------
print " "
 

# Reset current timestep
reset_timestep 0

# spherical indenter to shatter target

#q is velocity for indent.txt
variable         q equal "1+(0.001*v_l)"

# indenter radius (w) for indent.txt
variable         w equal "0.0020+(0.001*v_k)"

#disk radius(v_r)
variable r equal 0.037

variable        y0 equal 0.00510
variable        vy equal -100
variable        y equal "v_y0 + v_q*step*dt*v_vy"

#Hit the whole disk
#variable        x equal "cos((PI/2)*v_i/v_imax)*((v_i-1)/v_imax*v_r)"
#variable        z equal "sin((PI/2)*v_j/v_jmax)*((v_j-1)/v_jmax*v_r)"

#Hit the disk reduced 5times compare to disk size
variable        x equal "cos((2*PI)*v_j/v_jmax)*(v_i/v_imax)*v_r*(0.2)"
variable        z equal "sin((2*PI)*v_j/v_jmax)*(v_i/v_imax)*v_r*(0.2)"

compute         1 all damage/atom
timestep        1.0e-7
thermo          100

variable shiftcount equal "v_count + v_countstart"
dump            ${shiftcount} all custom 1000 Data/dump_${shiftcount}.peri id type x y z c_1
dump            2326 all custom 1000 Data/dump_${shiftcount}.peri id type x y z c_1
dump            2326 all custom 1000 Data/dump_2326.peri id type x y z c_1

run             1000
Neighbor list info ...
  2 neighbor list requests
  update every 1 steps, delay 10 steps, check yes
  max neighbors/atom: 2000, page size: 100000
  master list distance cutoff = 0.0025001
  ghost atom cutoff = 0.0025001
  binsize = 0.00125005 -> bins = 60 3 60
Peridynamic bonds:
  total # of bonds = 185180
  bonds/atom = 14.4053
Memory usage per processor = 9.32606 Mbytes
Step Temp E_pair E_mol TotEng Press Volume 
       0            0            0            0            0            0 1.095912e-05 
     100            0            0            0            0            0 1.095912e-05 
     200            0            0            0            0            0 1.095912e-05 
     300 8.3324982e+22    29519.148            0    51700.525 1.3493407e+09 1.095912e-05 
     400 9.3389248e+24    1466663.2            0    3952714.9 1.5123183e+11 1.095912e-05 
     500 1.4892001e+26    9594754.8            0     49237738 2.4115672e+12 1.095912e-05 
     600 6.5277236e+26     17304827            0 1.9107492e+08 8.2598244e+12 1.4025326e-05 
     700 1.5779933e+27    8624877.1            0 4.2869175e+08 1.3111646e+13 2.1358462e-05 
     800 2.0736406e+27    7987850.4            0 5.5999762e+08 1.0248282e+13 3.5909093e-05 
     900 2.1229743e+27    5429757.8            0 5.7057232e+08 7.3786867e+12 5.1060808e-05 
    1000 2.1236702e+27    3500796.5            0 5.6882859e+08 6.0371493e+12 6.2427676e-05 
Loop time of 20.1449 on 1 procs for 1000 steps with 12855 atoms

97.5% CPU use with 1 MPI tasks x 1 OpenMP threads

MPI task timing breakdown:
Section |  min time  |  avg time  |  max time  |%varavg| %total
---------------------------------------------------------------
Pair    | 18.933     | 18.933     | 18.933     |   0.0 | 93.98
Neigh   | 0.18316    | 0.18316    | 0.18316    |   0.0 |  0.91
Comm    | 0.0047927  | 0.0047927  | 0.0047927  |   0.0 |  0.02
Output  | 0.033358   | 0.033358   | 0.033358   |   0.0 |  0.17
Modify  | 0.75816    | 0.75816    | 0.75816    |   0.0 |  3.76
Other   |            | 0.2326     |            |       |  1.15

Nlocal:    12855 ave 12855 max 12855 min
Histogram: 1 0 0 0 0 0 0 0 0 0
Nghost:    0 ave 0 max 0 min
Histogram: 1 0 0 0 0 0 0 0 0 0
Neighs:    333225 ave 333225 max 333225 min
Histogram: 1 0 0 0 0 0 0 0 0 0
FullNghs:  674306 ave 674306 max 674306 min
Histogram: 1 0 0 0 0 0 0 0 0 0

Total # of neighbors = 674306
Ave neighs/atom = 52.4548
Neighbor list builds = 14
Dangerous builds = 0

# SAVE INDENTER
print $x file Data/indenter_${shiftcount}.txt
print 0.000152448383891641 file Data/indenter_${shiftcount}.txt
print 0.000152448383891641 file Data/indenter_2326.txt
0.000152448383891641
print $z append Data/indenter_${shiftcount}.txt
print 0.000469187881372276 append Data/indenter_${shiftcount}.txt
print 0.000469187881372276 append Data/indenter_2326.txt
0.000469187881372276
print $w append Data/indenter_${shiftcount}.txt
print 0.003 append Data/indenter_${shiftcount}.txt
print 0.003 append Data/indenter_2326.txt
0.003
print $q append Data/indenter_${shiftcount}.txt
print 1.001 append Data/indenter_${shiftcount}.txt
print 1.001 append Data/indenter_2326.txt
1.001

next j
next count
jump SELF start_of_loop_4
variable j loop ${jmax}
variable j loop 5
clear
WARNING: OMP_NUM_THREADS environment is not set. (../comm.cpp:90)
  using 1 OpenMP thread(s) per MPI task

# DEFINE INITIAL CONDITIONS
# small Peridynamic cylinder hit by projectile
units		si
boundary        s s s
dimension	3
atom_style      peri
atom_modify	map array
neighbor        0.0010 bin

# small target
lattice         sc 0.001
Lattice spacing in x,y,z = 0.001 0.001 0.001
region          target cylinder y 0.0 0.0 0.037 -0.0025 0.0 units box
create_box      1 target
Created orthogonal box = (-0.037 -0.0025 -0.037) to (0.037 0 0.037)
  1 by 1 by 1 MPI processor grid
create_atoms    1 region target
Created 12855 atoms

pair_style      peri/pmb
pair_coeff      * * 1.6863e22 0.0015001 0.0005 0.25
set             group all density 2200
  12855 settings made for density
set             group all volume 1.25e-10
  12855 settings made for volume
velocity        all set 0.0 0.0 0.0 sum no units box
fix             1 all nve
fix             2 all indent 1e16 sphere v_x v_y v_z v_w units box


print "Iteration:  i = $i , j = $j, k = $k, l = $l "
Iteration:  i = 1 , j = 2, k = 1, l = 1 

print " "
 
print " "
 
print "----------------------------------------------------------------"
----------------------------------------------------------------
print "Iteration ${count} of ${countmax}"
Iteration 2 of 675
print "----------------------------------------------------------------"
----------------------------------------------------------------
print " "
 

# Reset current timestep
reset_timestep 0

# spherical indenter to shatter target

#q is velocity for indent.txt
variable         q equal "1+(0.001*v_l)"

# indenter radius (w) for indent.txt
variable         w equal "0.0020+(0.001*v_k)"

#disk radius(v_r)
variable r equal 0.037

variable        y0 equal 0.00510
variable        vy equal -100
variable        y equal "v_y0 + v_q*step*dt*v_vy"

#Hit the whole disk
#variable        x equal "cos((PI/2)*v_i/v_imax)*((v_i-1)/v_imax*v_r)"
#variable        z equal "sin((PI/2)*v_j/v_jmax)*((v_j-1)/v_jmax*v_r)"

#Hit the disk reduced 5times compare to disk size
variable        x equal "cos((2*PI)*v_j/v_jmax)*(v_i/v_imax)*v_r*(0.2)"
variable        z equal "sin((2*PI)*v_j/v_jmax)*(v_i/v_imax)*v_r*(0.2)"

compute         1 all damage/atom
timestep        1.0e-7
thermo          100

variable shiftcount equal "v_count + v_countstart"
dump            ${shiftcount} all custom 1000 Data/dump_${shiftcount}.peri id type x y z c_1
dump            2327 all custom 1000 Data/dump_${shiftcount}.peri id type x y z c_1
dump            2327 all custom 1000 Data/dump_2327.peri id type x y z c_1

run             1000
Neighbor list info ...
  2 neighbor list requests
  update every 1 steps, delay 10 steps, check yes
  max neighbors/atom: 2000, page size: 100000
  master list distance cutoff = 0.0025001
  ghost atom cutoff = 0.0025001
  binsize = 0.00125005 -> bins = 60 3 60
Peridynamic bonds:
  total # of bonds = 185180
  bonds/atom = 14.4053
Memory usage per processor = 9.32606 Mbytes
Step Temp E_pair E_mol TotEng Press Volume 
       0            0            0            0            0            0 1.095912e-05 
     100            0            0            0            0            0 1.095912e-05 
     200            0            0            0            0            0 1.095912e-05 
     300 8.300848e+22    29532.817            0     51629.94 1.3442153e+09 1.095912e-05 
     400 9.3251034e+24      1506052            0    3988424.4 1.5100801e+11 1.095912e-05 
     500 1.4828745e+26      9433548            0     48908143 2.4013239e+12 1.095912e-05 
     600 6.328226e+26     16678104            0 1.8513751e+08 8.1756066e+12 1.3736751e-05 
     700 1.5365679e+27    8071414.4            0 4.1711071e+08 1.2335432e+13 2.2106472e-05 
     800 2.0531247e+27    6140092.2            0 5.5268846e+08 9.6245172e+12 3.7858063e-05 
     900 2.1058279e+27    4626859.5            0 5.6520498e+08 7.0857461e+12 5.2742329e-05 
    1000 2.1091219e+27    2749615.3            0 5.6420464e+08 5.5294255e+12 6.7692991e-05 
Loop time of 19.8127 on 1 procs for 1000 steps with 12855 atoms

98.7% CPU use with 1 MPI tasks x 1 OpenMP threads

MPI task timing breakdown:
Section |  min time  |  avg time  |  max time  |%varavg| %total
---------------------------------------------------------------
Pair    | 18.676     | 18.676     | 18.676     |   0.0 | 94.26
Neigh   | 0.19971    | 0.19971    | 0.19971    |   0.0 |  1.01
Comm    | 0.0050325  | 0.0050325  | 0.0050325  |   0.0 |  0.03
Output  | 0.033386   | 0.033386   | 0.033386   |   0.0 |  0.17
Modify  | 0.70867    | 0.70867    | 0.70867    |   0.0 |  3.58
Other   |            | 0.1896     |            |       |  0.96

Nlocal:    12855 ave 12855 max 12855 min
Histogram: 1 0 0 0 0 0 0 0 0 0
Nghost:    0 ave 0 max 0 min
Histogram: 1 0 0 0 0 0 0 0 0 0
Neighs:    333394 ave 333394 max 333394 min
Histogram: 1 0 0 0 0 0 0 0 0 0
FullNghs:  674306 ave 674306 max 674306 min
Histogram: 1 0 0 0 0 0 0 0 0 0

Total # of neighbors = 674306
Ave neighs/atom = 52.4548
Neighbor list builds = 15
Dangerous builds = 0

# SAVE INDENTER
print $x file Data/indenter_${shiftcount}.txt
print -0.000399115050558307 file Data/indenter_${shiftcount}.txt
print -0.000399115050558307 file Data/indenter_2327.txt
-0.000399115050558307
print $z append Data/indenter_${shiftcount}.txt
print 0.00028997405779762 append Data/indenter_${shiftcount}.txt
print 0.00028997405779762 append Data/indenter_2327.txt
0.00028997405779762
print $w append Data/indenter_${shiftcount}.txt
print 0.003 append Data/indenter_${shiftcount}.txt
print 0.003 append Data/indenter_2327.txt
0.003
print $q append Data/indenter_${shiftcount}.txt
print 1.001 append Data/indenter_${shiftcount}.txt
print 1.001 append Data/indenter_2327.txt
1.001

next j
next count
jump SELF start_of_loop_4
variable j loop ${jmax}
variable j loop 5
clear
WARNING: OMP_NUM_THREADS environment is not set. (../comm.cpp:90)
  using 1 OpenMP thread(s) per MPI task

# DEFINE INITIAL CONDITIONS
# small Peridynamic cylinder hit by projectile
units		si
boundary        s s s
dimension	3
atom_style      peri
atom_modify	map array
neighbor        0.0010 bin

# small target
lattice         sc 0.001
Lattice spacing in x,y,z = 0.001 0.001 0.001
region          target cylinder y 0.0 0.0 0.037 -0.0025 0.0 units box
create_box      1 target
Created orthogonal box = (-0.037 -0.0025 -0.037) to (0.037 0 0.037)
  1 by 1 by 1 MPI processor grid
create_atoms    1 region target
Created 12855 atoms

pair_style      peri/pmb
pair_coeff      * * 1.6863e22 0.0015001 0.0005 0.25
set             group all density 2200
  12855 settings made for density
set             group all volume 1.25e-10
  12855 settings made for volume
velocity        all set 0.0 0.0 0.0 sum no units box
fix             1 all nve
fix             2 all indent 1e16 sphere v_x v_y v_z v_w units box


print "Iteration:  i = $i , j = $j, k = $k, l = $l "
Iteration:  i = 1 , j = 3, k = 1, l = 1 

print " "
 
print " "
 
print "----------------------------------------------------------------"
----------------------------------------------------------------
print "Iteration ${count} of ${countmax}"
Iteration 3 of 675
print "----------------------------------------------------------------"
----------------------------------------------------------------
print " "
 

# Reset current timestep
reset_timestep 0

# spherical indenter to shatter target

#q is velocity for indent.txt
variable         q equal "1+(0.001*v_l)"

# indenter radius (w) for indent.txt
variable         w equal "0.0020+(0.001*v_k)"

#disk radius(v_r)
variable r equal 0.037

variable        y0 equal 0.00510
variable        vy equal -100
variable        y equal "v_y0 + v_q*step*dt*v_vy"

#Hit the whole disk
#variable        x equal "cos((PI/2)*v_i/v_imax)*((v_i-1)/v_imax*v_r)"
#variable        z equal "sin((PI/2)*v_j/v_jmax)*((v_j-1)/v_jmax*v_r)"

#Hit the disk reduced 5times compare to disk size
variable        x equal "cos((2*PI)*v_j/v_jmax)*(v_i/v_imax)*v_r*(0.2)"
variable        z equal "sin((2*PI)*v_j/v_jmax)*(v_i/v_imax)*v_r*(0.2)"

compute         1 all damage/atom
timestep        1.0e-7
thermo          100

variable shiftcount equal "v_count + v_countstart"
dump            ${shiftcount} all custom 1000 Data/dump_${shiftcount}.peri id type x y z c_1
dump            2328 all custom 1000 Data/dump_${shiftcount}.peri id type x y z c_1
dump            2328 all custom 1000 Data/dump_2328.peri id type x y z c_1

run             1000
Neighbor list info ...
  2 neighbor list requests
  update every 1 steps, delay 10 steps, check yes
  max neighbors/atom: 2000, page size: 100000
  master list distance cutoff = 0.0025001
  ghost atom cutoff = 0.0025001
  binsize = 0.00125005 -> bins = 60 3 60
Peridynamic bonds:
  total # of bonds = 185180
  bonds/atom = 14.4053
Memory usage per processor = 9.32606 Mbytes
Step Temp E_pair E_mol TotEng Press Volume 
       0            0            0            0            0            0 1.095912e-05 
     100            0            0            0            0            0 1.095912e-05 
     200            0            0            0            0            0 1.095912e-05 
     300 8.300848e+22    29532.817            0     51629.94 1.3442153e+09 1.095912e-05 
     400 9.3251034e+24      1506052            0    3988424.4 1.5100801e+11 1.095912e-05 
     500 1.4828745e+26      9433548            0     48908143 2.4013239e+12 1.095912e-05 
     600 6.328226e+26     16678104            0 1.8513751e+08 8.1756066e+12 1.3736751e-05 
     700 1.5365679e+27    8071414.4            0 4.1711071e+08 1.2335432e+13 2.2106472e-05 
     800 2.0531247e+27    6140092.2            0 5.5268846e+08 9.6245172e+12 3.7858063e-05 
     900 2.1058279e+27    4626859.5            0 5.6520498e+08 7.0857461e+12 5.2742329e-05 
    1000 2.1091219e+27    2749615.3            0 5.6420464e+08 5.5294255e+12 6.7692991e-05 
Loop time of 20.2527 on 1 procs for 1000 steps with 12855 atoms

96.9% CPU use with 1 MPI tasks x 1 OpenMP threads

MPI task timing breakdown:
Section |  min time  |  avg time  |  max time  |%varavg| %total
---------------------------------------------------------------
Pair    | 19.044     | 19.044     | 19.044     |   0.0 | 94.03
Neigh   | 0.19882    | 0.19882    | 0.19882    |   0.0 |  0.98
Comm    | 0.0050945  | 0.0050945  | 0.0050945  |   0.0 |  0.03
Output  | 0.03742    | 0.03742    | 0.03742    |   0.0 |  0.18
Modify  | 0.76742    | 0.76742    | 0.76742    |   0.0 |  3.79
Other   |            | 0.2004     |            |       |  0.99

Nlocal:    12855 ave 12855 max 12855 min
Histogram: 1 0 0 0 0 0 0 0 0 0
Nghost:    0 ave 0 max 0 min
Histogram: 1 0 0 0 0 0 0 0 0 0
Neighs:    333394 ave 333394 max 333394 min
Histogram: 1 0 0 0 0 0 0 0 0 0
FullNghs:  674306 ave 674306 max 674306 min
Histogram: 1 0 0 0 0 0 0 0 0 0

Total # of neighbors = 674306
Ave neighs/atom = 52.4548
Neighbor list builds = 15
Dangerous builds = 0

# SAVE INDENTER
print $x file Data/indenter_${shiftcount}.txt
print -0.000399115050558307 file Data/indenter_${shiftcount}.txt
print -0.000399115050558307 file Data/indenter_2328.txt
-0.000399115050558307
print $z append Data/indenter_${shiftcount}.txt
print -0.00028997405779762 append Data/indenter_${shiftcount}.txt
print -0.00028997405779762 append Data/indenter_2328.txt
-0.00028997405779762
print $w append Data/indenter_${shiftcount}.txt
print 0.003 append Data/indenter_${shiftcount}.txt
print 0.003 append Data/indenter_2328.txt
0.003
print $q append Data/indenter_${shiftcount}.txt
print 1.001 append Data/indenter_${shiftcount}.txt
print 1.001 append Data/indenter_2328.txt
1.001

next j
next count
jump SELF start_of_loop_4
variable j loop ${jmax}
variable j loop 5
clear
WARNING: OMP_NUM_THREADS environment is not set. (../comm.cpp:90)
  using 1 OpenMP thread(s) per MPI task

# DEFINE INITIAL CONDITIONS
# small Peridynamic cylinder hit by projectile
units		si
boundary        s s s
dimension	3
atom_style      peri
atom_modify	map array
neighbor        0.0010 bin

# small target
lattice         sc 0.001
Lattice spacing in x,y,z = 0.001 0.001 0.001
region          target cylinder y 0.0 0.0 0.037 -0.0025 0.0 units box
create_box      1 target
Created orthogonal box = (-0.037 -0.0025 -0.037) to (0.037 0 0.037)
  1 by 1 by 1 MPI processor grid
create_atoms    1 region target
Created 12855 atoms

pair_style      peri/pmb
pair_coeff      * * 1.6863e22 0.0015001 0.0005 0.25
set             group all density 2200
  12855 settings made for density
set             group all volume 1.25e-10
  12855 settings made for volume
velocity        all set 0.0 0.0 0.0 sum no units box
fix             1 all nve
fix             2 all indent 1e16 sphere v_x v_y v_z v_w units box


print "Iteration:  i = $i , j = $j, k = $k, l = $l "
Iteration:  i = 1 , j = 4, k = 1, l = 1 

print " "
 
print " "
 
print "----------------------------------------------------------------"
----------------------------------------------------------------
print "Iteration ${count} of ${countmax}"
Iteration 4 of 675
print "----------------------------------------------------------------"
----------------------------------------------------------------
print " "
 

# Reset current timestep
reset_timestep 0

# spherical indenter to shatter target

#q is velocity for indent.txt
variable         q equal "1+(0.001*v_l)"

# indenter radius (w) for indent.txt
variable         w equal "0.0020+(0.001*v_k)"

#disk radius(v_r)
variable r equal 0.037

variable        y0 equal 0.00510
variable        vy equal -100
variable        y equal "v_y0 + v_q*step*dt*v_vy"

#Hit the whole disk
#variable        x equal "cos((PI/2)*v_i/v_imax)*((v_i-1)/v_imax*v_r)"
#variable        z equal "sin((PI/2)*v_j/v_jmax)*((v_j-1)/v_jmax*v_r)"

#Hit the disk reduced 5times compare to disk size
variable        x equal "cos((2*PI)*v_j/v_jmax)*(v_i/v_imax)*v_r*(0.2)"
variable        z equal "sin((2*PI)*v_j/v_jmax)*(v_i/v_imax)*v_r*(0.2)"

compute         1 all damage/atom
timestep        1.0e-7
thermo          100

variable shiftcount equal "v_count + v_countstart"
dump            ${shiftcount} all custom 1000 Data/dump_${shiftcount}.peri id type x y z c_1
dump            2329 all custom 1000 Data/dump_${shiftcount}.peri id type x y z c_1
dump            2329 all custom 1000 Data/dump_2329.peri id type x y z c_1

run             1000
Neighbor list info ...
  2 neighbor list requests
  update every 1 steps, delay 10 steps, check yes
  max neighbors/atom: 2000, page size: 100000
  master list distance cutoff = 0.0025001
  ghost atom cutoff = 0.0025001
  binsize = 0.00125005 -> bins = 60 3 60
Peridynamic bonds:
  total # of bonds = 185180
  bonds/atom = 14.4053
Memory usage per processor = 9.32606 Mbytes
Step Temp E_pair E_mol TotEng Press Volume 
       0            0            0            0            0            0 1.095912e-05 
     100            0            0            0            0            0 1.095912e-05 
     200            0            0            0            0            0 1.095912e-05 
     300 8.3324982e+22    29519.148            0    51700.525 1.3493407e+09 1.095912e-05 
     400 9.3389248e+24    1466663.2            0    3952714.9 1.5123183e+11 1.095912e-05 
     500 1.4892001e+26    9594754.8            0     49237738 2.4115672e+12 1.095912e-05 
     600 6.5277236e+26     17304827            0 1.9107492e+08 8.2598244e+12 1.4025326e-05 
     700 1.5779933e+27    8624877.1            0 4.2869175e+08 1.3111646e+13 2.1358462e-05 
     800 2.0736406e+27    7987850.4            0 5.5999762e+08 1.0248282e+13 3.5909093e-05 
     900 2.1229743e+27    5429757.8            0 5.7057232e+08 7.3786867e+12 5.1060808e-05 
    1000 2.1236702e+27    3500796.5            0 5.6882859e+08 6.0371493e+12 6.2427676e-05 
Loop time of 20.1117 on 1 procs for 1000 steps with 12855 atoms

97.3% CPU use with 1 MPI tasks x 1 OpenMP threads

MPI task timing breakdown:
Section |  min time  |  avg time  |  max time  |%varavg| %total
---------------------------------------------------------------
Pair    | 18.939     | 18.939     | 18.939     |   0.0 | 94.17
Neigh   | 0.18563    | 0.18563    | 0.18563    |   0.0 |  0.92
Comm    | 0.0049927  | 0.0049927  | 0.0049927  |   0.0 |  0.02
Output  | 0.034827   | 0.034827   | 0.034827   |   0.0 |  0.17
Modify  | 0.75197    | 0.75197    | 0.75197    |   0.0 |  3.74
Other   |            | 0.195      |            |       |  0.97

Nlocal:    12855 ave 12855 max 12855 min
Histogram: 1 0 0 0 0 0 0 0 0 0
Nghost:    0 ave 0 max 0 min
Histogram: 1 0 0 0 0 0 0 0 0 0
Neighs:    333225 ave 333225 max 333225 min
Histogram: 1 0 0 0 0 0 0 0 0 0
FullNghs:  674306 ave 674306 max 674306 min
Histogram: 1 0 0 0 0 0 0 0 0 0

Total # of neighbors = 674306
Ave neighs/atom = 52.4548
Neighbor list builds = 14
Dangerous builds = 0

# SAVE INDENTER
print $x file Data/indenter_${shiftcount}.txt
print 0.000152448383891641 file Data/indenter_${shiftcount}.txt
print 0.000152448383891641 file Data/indenter_2329.txt
0.000152448383891641
print $z append Data/indenter_${shiftcount}.txt
print -0.000469187881372276 append Data/indenter_${shiftcount}.txt
print -0.000469187881372276 append Data/indenter_2329.txt
-0.000469187881372276
print $w append Data/indenter_${shiftcount}.txt
print 0.003 append Data/indenter_${shiftcount}.txt
print 0.003 append Data/indenter_2329.txt
0.003
print $q append Data/indenter_${shiftcount}.txt
print 1.001 append Data/indenter_${shiftcount}.txt
print 1.001 append Data/indenter_2329.txt
1.001

next j
next count
jump SELF start_of_loop_4
variable j loop ${jmax}
variable j loop 5
clear
WARNING: OMP_NUM_THREADS environment is not set. (../comm.cpp:90)
  using 1 OpenMP thread(s) per MPI task

# DEFINE INITIAL CONDITIONS
# small Peridynamic cylinder hit by projectile
units		si
boundary        s s s
dimension	3
atom_style      peri
atom_modify	map array
neighbor        0.0010 bin

# small target
lattice         sc 0.001
Lattice spacing in x,y,z = 0.001 0.001 0.001
region          target cylinder y 0.0 0.0 0.037 -0.0025 0.0 units box
create_box      1 target
Created orthogonal box = (-0.037 -0.0025 -0.037) to (0.037 0 0.037)
  1 by 1 by 1 MPI processor grid
create_atoms    1 region target
Created 12855 atoms

pair_style      peri/pmb
pair_coeff      * * 1.6863e22 0.0015001 0.0005 0.25
set             group all density 2200
  12855 settings made for density
set             group all volume 1.25e-10
  12855 settings made for volume
velocity        all set 0.0 0.0 0.0 sum no units box
fix             1 all nve
fix             2 all indent 1e16 sphere v_x v_y v_z v_w units box


print "Iteration:  i = $i , j = $j, k = $k, l = $l "
Iteration:  i = 1 , j = 5, k = 1, l = 1 

print " "
 
print " "
 
print "----------------------------------------------------------------"
----------------------------------------------------------------
print "Iteration ${count} of ${countmax}"
Iteration 5 of 675
print "----------------------------------------------------------------"
----------------------------------------------------------------
print " "
 

# Reset current timestep
reset_timestep 0

# spherical indenter to shatter target

#q is velocity for indent.txt
variable         q equal "1+(0.001*v_l)"

# indenter radius (w) for indent.txt
variable         w equal "0.0020+(0.001*v_k)"

#disk radius(v_r)
variable r equal 0.037

variable        y0 equal 0.00510
variable        vy equal -100
variable        y equal "v_y0 + v_q*step*dt*v_vy"

#Hit the whole disk
#variable        x equal "cos((PI/2)*v_i/v_imax)*((v_i-1)/v_imax*v_r)"
#variable        z equal "sin((PI/2)*v_j/v_jmax)*((v_j-1)/v_jmax*v_r)"

#Hit the disk reduced 5times compare to disk size
variable        x equal "cos((2*PI)*v_j/v_jmax)*(v_i/v_imax)*v_r*(0.2)"
variable        z equal "sin((2*PI)*v_j/v_jmax)*(v_i/v_imax)*v_r*(0.2)"

compute         1 all damage/atom
timestep        1.0e-7
thermo          100

variable shiftcount equal "v_count + v_countstart"
dump            ${shiftcount} all custom 1000 Data/dump_${shiftcount}.peri id type x y z c_1
dump            2330 all custom 1000 Data/dump_${shiftcount}.peri id type x y z c_1
dump            2330 all custom 1000 Data/dump_2330.peri id type x y z c_1

run             1000
Neighbor list info ...
  2 neighbor list requests
  update every 1 steps, delay 10 steps, check yes
  max neighbors/atom: 2000, page size: 100000
  master list distance cutoff = 0.0025001
  ghost atom cutoff = 0.0025001
  binsize = 0.00125005 -> bins = 60 3 60
Peridynamic bonds:
  total # of bonds = 185180
  bonds/atom = 14.4053
Memory usage per processor = 9.32606 Mbytes
Step Temp E_pair E_mol TotEng Press Volume 
       0            0            0            0            0            0 1.095912e-05 
     100            0            0            0            0            0 1.095912e-05 
     200            0            0            0            0            0 1.095912e-05 
     300 8.3557029e+22    29510.715            0    51753.864 1.3530984e+09 1.095912e-05 
     400 9.2984878e+24    1430128.1            0    3905415.4 1.5057701e+11 1.095912e-05 
     500 1.4872067e+26    9613693.7            0     49203614 2.4083393e+12 1.095912e-05 
     600 6.5554151e+26     15806948            0 1.903142e+08 8.1513273e+12 1.4272297e-05 
     700 1.5804805e+27     12256582            0 4.3298557e+08 1.2823317e+13 2.1873123e-05 
     800 2.082239e+27      4936375            0 5.5923506e+08 1.0133033e+13 3.6468098e-05 
     900 2.1163236e+27    4990613.3            0 5.6836273e+08 7.8149629e+12 4.805927e-05 
    1000 2.117936e+27    2797371.7            0 5.6659871e+08 5.8863432e+12 6.385417e-05 
Loop time of 19.9677 on 1 procs for 1000 steps with 12855 atoms

98.1% CPU use with 1 MPI tasks x 1 OpenMP threads

MPI task timing breakdown:
Section |  min time  |  avg time  |  max time  |%varavg| %total
---------------------------------------------------------------
Pair    | 18.815     | 18.815     | 18.815     |   0.0 | 94.23
Neigh   | 0.18518    | 0.18518    | 0.18518    |   0.0 |  0.93
Comm    | 0.0049739  | 0.0049739  | 0.0049739  |   0.0 |  0.02
Output  | 0.034587   | 0.034587   | 0.034587   |   0.0 |  0.17
Modify  | 0.72751    | 0.72751    | 0.72751    |   0.0 |  3.64
Other   |            | 0.2004     |            |       |  1.00

Nlocal:    12855 ave 12855 max 12855 min
Histogram: 1 0 0 0 0 0 0 0 0 0
Nghost:    0 ave 0 max 0 min
Histogram: 1 0 0 0 0 0 0 0 0 0
Neighs:    333219 ave 333219 max 333219 min
Histogram: 1 0 0 0 0 0 0 0 0 0
FullNghs:  674306 ave 674306 max 674306 min
Histogram: 1 0 0 0 0 0 0 0 0 0

Total # of neighbors = 674306
Ave neighs/atom = 52.4548
Neighbor list builds = 14
Dangerous builds = 0

# SAVE INDENTER
print $x file Data/indenter_${shiftcount}.txt
print 0.000493333333333333 file Data/indenter_${shiftcount}.txt
print 0.000493333333333333 file Data/indenter_2330.txt
0.000493333333333333
print $z append Data/indenter_${shiftcount}.txt
print -1.20831817515872e-19 append Data/indenter_${shiftcount}.txt
print -1.20831817515872e-19 append Data/indenter_2330.txt
-1.20831817515872e-19
print $w append Data/indenter_${shiftcount}.txt
print 0.003 append Data/indenter_${shiftcount}.txt
print 0.003 append Data/indenter_2330.txt
0.003
print $q append Data/indenter_${shiftcount}.txt
print 1.001 append Data/indenter_${shiftcount}.txt
print 1.001 append Data/indenter_2330.txt
1.001

next j
next count
jump SELF start_of_loop_4

next i
jump SELF start_of_loop_3
variable i loop ${imax}
variable i loop 15

variable jmax equal "5*v_i"

print "imax = ${imax}"
imax = 15
print "jmax = ${jmax}"
jmax = 10

# Loop 4
label start_of_loop_4
variable j loop ${jmax}
variable j loop 10
clear
WARNING: OMP_NUM_THREADS environment is not set. (../comm.cpp:90)
  using 1 OpenMP thread(s) per MPI task

# DEFINE INITIAL CONDITIONS
# small Peridynamic cylinder hit by projectile
units		si
boundary        s s s
dimension	3
atom_style      peri
atom_modify	map array
neighbor        0.0010 bin

# small target
lattice         sc 0.001
Lattice spacing in x,y,z = 0.001 0.001 0.001
region          target cylinder y 0.0 0.0 0.037 -0.0025 0.0 units box
create_box      1 target
Created orthogonal box = (-0.037 -0.0025 -0.037) to (0.037 0 0.037)
  1 by 1 by 1 MPI processor grid
create_atoms    1 region target
Created 12855 atoms

pair_style      peri/pmb
pair_coeff      * * 1.6863e22 0.0015001 0.0005 0.25
set             group all density 2200
  12855 settings made for density
set             group all volume 1.25e-10
  12855 settings made for volume
velocity        all set 0.0 0.0 0.0 sum no units box
fix             1 all nve
fix             2 all indent 1e16 sphere v_x v_y v_z v_w units box


print "Iteration:  i = $i , j = $j, k = $k, l = $l "
Iteration:  i = 2 , j = 1, k = 1, l = 1 

print " "
 
print " "
 
print "----------------------------------------------------------------"
----------------------------------------------------------------
print "Iteration ${count} of ${countmax}"
Iteration 6 of 675
print "----------------------------------------------------------------"
----------------------------------------------------------------
print " "
 

# Reset current timestep
reset_timestep 0

# spherical indenter to shatter target

#q is velocity for indent.txt
variable         q equal "1+(0.001*v_l)"

# indenter radius (w) for indent.txt
variable         w equal "0.0020+(0.001*v_k)"

#disk radius(v_r)
variable r equal 0.037

variable        y0 equal 0.00510
variable        vy equal -100
variable        y equal "v_y0 + v_q*step*dt*v_vy"

#Hit the whole disk
#variable        x equal "cos((PI/2)*v_i/v_imax)*((v_i-1)/v_imax*v_r)"
#variable        z equal "sin((PI/2)*v_j/v_jmax)*((v_j-1)/v_jmax*v_r)"

#Hit the disk reduced 5times compare to disk size
variable        x equal "cos((2*PI)*v_j/v_jmax)*(v_i/v_imax)*v_r*(0.2)"
variable        z equal "sin((2*PI)*v_j/v_jmax)*(v_i/v_imax)*v_r*(0.2)"

compute         1 all damage/atom
timestep        1.0e-7
thermo          100

variable shiftcount equal "v_count + v_countstart"
dump            ${shiftcount} all custom 1000 Data/dump_${shiftcount}.peri id type x y z c_1
dump            2331 all custom 1000 Data/dump_${shiftcount}.peri id type x y z c_1
dump            2331 all custom 1000 Data/dump_2331.peri id type x y z c_1

run             1000
Neighbor list info ...
  2 neighbor list requests
  update every 1 steps, delay 10 steps, check yes
  max neighbors/atom: 2000, page size: 100000
  master list distance cutoff = 0.0025001
  ghost atom cutoff = 0.0025001
  binsize = 0.00125005 -> bins = 60 3 60
Peridynamic bonds:
  total # of bonds = 185180
  bonds/atom = 14.4053
Memory usage per processor = 9.32606 Mbytes
Step Temp E_pair E_mol TotEng Press Volume 
       0            0            0            0            0            0 1.095912e-05 
     100            0            0            0            0            0 1.095912e-05 
     200            0            0            0            0            0 1.095912e-05 
     300 8.3243249e+22    29518.246            0    51677.865 1.3480171e+09 1.095912e-05 
     400 9.305297e+24    1470154.6            0    3947254.5 1.5068727e+11 1.095912e-05 
     500 1.4998657e+26      9703573            0     49630479 2.4288389e+12 1.095912e-05 
     600 6.6071549e+26     18654457            0 1.9453904e+08 8.3154408e+12 1.4101043e-05 
     700 1.5844483e+27     10229219            0 4.3201445e+08 1.0958416e+13 2.5659744e-05 
     800 2.0829348e+27    5656661.3            0 5.6014057e+08 9.767075e+12 3.7847149e-05 
     900 2.135598e+27      4604513            0 5.7310754e+08 7.1994837e+12 5.2642944e-05 
    1000 2.133808e+27    3738648.3            0 5.7176516e+08 5.3374813e+12 7.0948135e-05 
Loop time of 20.2045 on 1 procs for 1000 steps with 12855 atoms

97.1% CPU use with 1 MPI tasks x 1 OpenMP threads

MPI task timing breakdown:
Section |  min time  |  avg time  |  max time  |%varavg| %total
---------------------------------------------------------------
Pair    | 19.017     | 19.017     | 19.017     |   0.0 | 94.12
Neigh   | 0.20761    | 0.20761    | 0.20761    |   0.0 |  1.03
Comm    | 0.00528    | 0.00528    | 0.00528    |   0.0 |  0.03
Output  | 0.034145   | 0.034145   | 0.034145   |   0.0 |  0.17
Modify  | 0.73852    | 0.73852    | 0.73852    |   0.0 |  3.66
Other   |            | 0.2016     |            |       |  1.00

Nlocal:    12855 ave 12855 max 12855 min
Histogram: 1 0 0 0 0 0 0 0 0 0
Nghost:    0 ave 0 max 0 min
Histogram: 1 0 0 0 0 0 0 0 0 0
Neighs:    333076 ave 333076 max 333076 min
Histogram: 1 0 0 0 0 0 0 0 0 0
FullNghs:  674306 ave 674306 max 674306 min
Histogram: 1 0 0 0 0 0 0 0 0 0

Total # of neighbors = 674306
Ave neighs/atom = 52.4548
Neighbor list builds = 16
Dangerous builds = 0

# SAVE INDENTER
print $x file Data/indenter_${shiftcount}.txt
print 0.000798230101116615 file Data/indenter_${shiftcount}.txt
print 0.000798230101116615 file Data/indenter_2331.txt
0.000798230101116615
print $z append Data/indenter_${shiftcount}.txt
print 0.00057994811559524 append Data/indenter_${shiftcount}.txt
print 0.00057994811559524 append Data/indenter_2331.txt
0.00057994811559524
print $w append Data/indenter_${shiftcount}.txt
print 0.003 append Data/indenter_${shiftcount}.txt
print 0.003 append Data/indenter_2331.txt
0.003
print $q append Data/indenter_${shiftcount}.txt
print 1.001 append Data/indenter_${shiftcount}.txt
print 1.001 append Data/indenter_2331.txt
1.001

next j
next count
jump SELF start_of_loop_4
variable j loop ${jmax}
variable j loop 10
clear
WARNING: OMP_NUM_THREADS environment is not set. (../comm.cpp:90)
  using 1 OpenMP thread(s) per MPI task

# DEFINE INITIAL CONDITIONS
# small Peridynamic cylinder hit by projectile
units		si
boundary        s s s
dimension	3
atom_style      peri
atom_modify	map array
neighbor        0.0010 bin

# small target
lattice         sc 0.001
Lattice spacing in x,y,z = 0.001 0.001 0.001
region          target cylinder y 0.0 0.0 0.037 -0.0025 0.0 units box
create_box      1 target
Created orthogonal box = (-0.037 -0.0025 -0.037) to (0.037 0 0.037)
  1 by 1 by 1 MPI processor grid
create_atoms    1 region target
Created 12855 atoms

pair_style      peri/pmb
pair_coeff      * * 1.6863e22 0.0015001 0.0005 0.25
set             group all density 2200
  12855 settings made for density
set             group all volume 1.25e-10
  12855 settings made for volume
velocity        all set 0.0 0.0 0.0 sum no units box
fix             1 all nve
fix             2 all indent 1e16 sphere v_x v_y v_z v_w units box


print "Iteration:  i = $i , j = $j, k = $k, l = $l "
Iteration:  i = 2 , j = 2, k = 1, l = 1 

print " "
 
print " "
 
print "----------------------------------------------------------------"
----------------------------------------------------------------
print "Iteration ${count} of ${countmax}"
Iteration 7 of 675
print "----------------------------------------------------------------"
----------------------------------------------------------------
print " "
 

# Reset current timestep
reset_timestep 0

# spherical indenter to shatter target

#q is velocity for indent.txt
variable         q equal "1+(0.001*v_l)"

# indenter radius (w) for indent.txt
variable         w equal "0.0020+(0.001*v_k)"

#disk radius(v_r)
variable r equal 0.037

variable        y0 equal 0.00510
variable        vy equal -100
variable        y equal "v_y0 + v_q*step*dt*v_vy"

#Hit the whole disk
#variable        x equal "cos((PI/2)*v_i/v_imax)*((v_i-1)/v_imax*v_r)"
#variable        z equal "sin((PI/2)*v_j/v_jmax)*((v_j-1)/v_jmax*v_r)"

#Hit the disk reduced 5times compare to disk size
variable        x equal "cos((2*PI)*v_j/v_jmax)*(v_i/v_imax)*v_r*(0.2)"
variable        z equal "sin((2*PI)*v_j/v_jmax)*(v_i/v_imax)*v_r*(0.2)"

compute         1 all damage/atom
timestep        1.0e-7
thermo          100

variable shiftcount equal "v_count + v_countstart"
dump            ${shiftcount} all custom 1000 Data/dump_${shiftcount}.peri id type x y z c_1
dump            2332 all custom 1000 Data/dump_${shiftcount}.peri id type x y z c_1
dump            2332 all custom 1000 Data/dump_2332.peri id type x y z c_1

run             1000
Neighbor list info ...
  2 neighbor list requests
  update every 1 steps, delay 10 steps, check yes
  max neighbors/atom: 2000, page size: 100000
  master list distance cutoff = 0.0025001
  ghost atom cutoff = 0.0025001
  binsize = 0.00125005 -> bins = 60 3 60
Peridynamic bonds:
  total # of bonds = 185180
  bonds/atom = 14.4053
Memory usage per processor = 9.32606 Mbytes
Step Temp E_pair E_mol TotEng Press Volume 
       0            0            0            0            0            0 1.095912e-05 
     100            0            0            0            0            0 1.095912e-05 
     200            0            0            0            0            0 1.095912e-05 
     300 8.3967626e+22    29436.981            0    51789.432 1.3597474e+09 1.095912e-05 
     400 9.3335882e+24    1418210.2            0    3902841.3 1.5114541e+11 1.095912e-05 
     500 1.5062978e+26    9927588.9            0     50025719 2.4392548e+12 1.095912e-05 
     600 6.4783615e+26     16393841            0 1.888499e+08 8.1535307e+12 1.4100727e-05 
     700 1.5508244e+27     10610884            0 4.2344531e+08 1.1172617e+13 2.4633704e-05 
     800 2.0284517e+27    5648415.1            0 5.4562875e+08 9.8744896e+12 3.6456253e-05 
     900 2.0804962e+27    3911497.9            0 5.5774626e+08 7.4346178e+12 4.9662698e-05 
    1000 2.079493e+27    3122585.7            0 5.5669027e+08 5.7589077e+12 6.4082487e-05 
Loop time of 20.0394 on 1 procs for 1000 steps with 12855 atoms

98.0% CPU use with 1 MPI tasks x 1 OpenMP threads

MPI task timing breakdown:
Section |  min time  |  avg time  |  max time  |%varavg| %total
---------------------------------------------------------------
Pair    | 18.855     | 18.855     | 18.855     |   0.0 | 94.09
Neigh   | 0.21016    | 0.21016    | 0.21016    |   0.0 |  1.05
Comm    | 0.0055385  | 0.0055385  | 0.0055385  |   0.0 |  0.03
Output  | 0.034533   | 0.034533   | 0.034533   |   0.0 |  0.17
Modify  | 0.7376     | 0.7376     | 0.7376     |   0.0 |  3.68
Other   |            | 0.1962     |            |       |  0.98

Nlocal:    12855 ave 12855 max 12855 min
Histogram: 1 0 0 0 0 0 0 0 0 0
Nghost:    0 ave 0 max 0 min
Histogram: 1 0 0 0 0 0 0 0 0 0
Neighs:    333530 ave 333530 max 333530 min
Histogram: 1 0 0 0 0 0 0 0 0 0
FullNghs:  674306 ave 674306 max 674306 min
Histogram: 1 0 0 0 0 0 0 0 0 0

Total # of neighbors = 674306
Ave neighs/atom = 52.4548
Neighbor list builds = 16
Dangerous builds = 0

# SAVE INDENTER
print $x file Data/indenter_${shiftcount}.txt
print 0.000304896767783281 file Data/indenter_${shiftcount}.txt
print 0.000304896767783281 file Data/indenter_2332.txt
0.000304896767783281
print $z append Data/indenter_${shiftcount}.txt
print 0.000938375762744552 append Data/indenter_${shiftcount}.txt
print 0.000938375762744552 append Data/indenter_2332.txt
0.000938375762744552
print $w append Data/indenter_${shiftcount}.txt
print 0.003 append Data/indenter_${shiftcount}.txt
print 0.003 append Data/indenter_2332.txt
0.003
print $q append Data/indenter_${shiftcount}.txt
print 1.001 append Data/indenter_${shiftcount}.txt
print 1.001 append Data/indenter_2332.txt
1.001

next j
next count
jump SELF start_of_loop_4
variable j loop ${jmax}
variable j loop 10
clear
WARNING: OMP_NUM_THREADS environment is not set. (../comm.cpp:90)
  using 1 OpenMP thread(s) per MPI task

# DEFINE INITIAL CONDITIONS
# small Peridynamic cylinder hit by projectile
units		si
boundary        s s s
dimension	3
atom_style      peri
atom_modify	map array
neighbor        0.0010 bin

# small target
lattice         sc 0.001
Lattice spacing in x,y,z = 0.001 0.001 0.001
region          target cylinder y 0.0 0.0 0.037 -0.0025 0.0 units box
create_box      1 target
Created orthogonal box = (-0.037 -0.0025 -0.037) to (0.037 0 0.037)
  1 by 1 by 1 MPI processor grid
create_atoms    1 region target
Created 12855 atoms

pair_style      peri/pmb
pair_coeff      * * 1.6863e22 0.0015001 0.0005 0.25
set             group all density 2200
  12855 settings made for density
set             group all volume 1.25e-10
  12855 settings made for volume
velocity        all set 0.0 0.0 0.0 sum no units box
fix             1 all nve
fix             2 all indent 1e16 sphere v_x v_y v_z v_w units box


print "Iteration:  i = $i , j = $j, k = $k, l = $l "
Iteration:  i = 2 , j = 3, k = 1, l = 1 

print " "
 
print " "
 
print "----------------------------------------------------------------"
----------------------------------------------------------------
print "Iteration ${count} of ${countmax}"
Iteration 8 of 675
print "----------------------------------------------------------------"
----------------------------------------------------------------
print " "
 

# Reset current timestep
reset_timestep 0

# spherical indenter to shatter target

#q is velocity for indent.txt
variable         q equal "1+(0.001*v_l)"

# indenter radius (w) for indent.txt
variable         w equal "0.0020+(0.001*v_k)"

#disk radius(v_r)
variable r equal 0.037

variable        y0 equal 0.00510
variable        vy equal -100
variable        y equal "v_y0 + v_q*step*dt*v_vy"

#Hit the whole disk
#variable        x equal "cos((PI/2)*v_i/v_imax)*((v_i-1)/v_imax*v_r)"
#variable        z equal "sin((PI/2)*v_j/v_jmax)*((v_j-1)/v_jmax*v_r)"

#Hit the disk reduced 5times compare to disk size
variable        x equal "cos((2*PI)*v_j/v_jmax)*(v_i/v_imax)*v_r*(0.2)"
variable        z equal "sin((2*PI)*v_j/v_jmax)*(v_i/v_imax)*v_r*(0.2)"

compute         1 all damage/atom
timestep        1.0e-7
thermo          100

variable shiftcount equal "v_count + v_countstart"
dump            ${shiftcount} all custom 1000 Data/dump_${shiftcount}.peri id type x y z c_1
dump            2333 all custom 1000 Data/dump_${shiftcount}.peri id type x y z c_1
dump            2333 all custom 1000 Data/dump_2333.peri id type x y z c_1

run             1000
Neighbor list info ...
  2 neighbor list requests
  update every 1 steps, delay 10 steps, check yes
  max neighbors/atom: 2000, page size: 100000
  master list distance cutoff = 0.0025001
  ghost atom cutoff = 0.0025001
  binsize = 0.00125005 -> bins = 60 3 60
Peridynamic bonds:
  total # of bonds = 185180
  bonds/atom = 14.4053
Memory usage per processor = 9.32606 Mbytes
Step Temp E_pair E_mol TotEng Press Volume 
       0            0            0            0            0            0 1.095912e-05 
     100            0            0            0            0            0 1.095912e-05 
     200            0            0            0            0            0 1.095912e-05 
     300 8.3967626e+22    29436.981            0    51789.432 1.3597474e+09 1.095912e-05 
     400 9.3335882e+24    1418210.2            0    3902841.3 1.5114541e+11 1.095912e-05 
     500 1.5062978e+26    9927588.9            0     50025719 2.4392548e+12 1.095912e-05 
     600 6.4783615e+26     16393841            0 1.888499e+08 8.1535307e+12 1.4100727e-05 
     700 1.5508244e+27     10610884            0 4.2344531e+08 1.1172617e+13 2.4633704e-05 
     800 2.0284517e+27    5648415.1            0 5.4562875e+08 9.8744896e+12 3.6456253e-05 
     900 2.0804962e+27    3911497.9            0 5.5774626e+08 7.4346178e+12 4.9662698e-05 
    1000 2.079493e+27    3122585.7            0 5.5669027e+08 5.7589077e+12 6.4082487e-05 
Loop time of 20.0052 on 1 procs for 1000 steps with 12855 atoms

98.1% CPU use with 1 MPI tasks x 1 OpenMP threads

MPI task timing breakdown:
Section |  min time  |  avg time  |  max time  |%varavg| %total
---------------------------------------------------------------
Pair    | 18.832     | 18.832     | 18.832     |   0.0 | 94.13
Neigh   | 0.20735    | 0.20735    | 0.20735    |   0.0 |  1.04
Comm    | 0.0052032  | 0.0052032  | 0.0052032  |   0.0 |  0.03
Output  | 0.034116   | 0.034116   | 0.034116   |   0.0 |  0.17
Modify  | 0.73294    | 0.73294    | 0.73294    |   0.0 |  3.66
Other   |            | 0.1939     |            |       |  0.97

Nlocal:    12855 ave 12855 max 12855 min
Histogram: 1 0 0 0 0 0 0 0 0 0
Nghost:    0 ave 0 max 0 min
Histogram: 1 0 0 0 0 0 0 0 0 0
Neighs:    333530 ave 333530 max 333530 min
Histogram: 1 0 0 0 0 0 0 0 0 0
FullNghs:  674306 ave 674306 max 674306 min
Histogram: 1 0 0 0 0 0 0 0 0 0

Total # of neighbors = 674306
Ave neighs/atom = 52.4548
Neighbor list builds = 16
Dangerous builds = 0

# SAVE INDENTER
print $x file Data/indenter_${shiftcount}.txt
print -0.000304896767783281 file Data/indenter_${shiftcount}.txt
print -0.000304896767783281 file Data/indenter_2333.txt
-0.000304896767783281
print $z append Data/indenter_${shiftcount}.txt
print 0.000938375762744552 append Data/indenter_${shiftcount}.txt
print 0.000938375762744552 append Data/indenter_2333.txt
0.000938375762744552
print $w append Data/indenter_${shiftcount}.txt
print 0.003 append Data/indenter_${shiftcount}.txt
print 0.003 append Data/indenter_2333.txt
0.003
print $q append Data/indenter_${shiftcount}.txt
print 1.001 append Data/indenter_${shiftcount}.txt
print 1.001 append Data/indenter_2333.txt
1.001

next j
next count
jump SELF start_of_loop_4
variable j loop ${jmax}
variable j loop 10
clear
WARNING: OMP_NUM_THREADS environment is not set. (../comm.cpp:90)
  using 1 OpenMP thread(s) per MPI task

# DEFINE INITIAL CONDITIONS
# small Peridynamic cylinder hit by projectile
units		si
boundary        s s s
dimension	3
atom_style      peri
atom_modify	map array
neighbor        0.0010 bin

# small target
lattice         sc 0.001
Lattice spacing in x,y,z = 0.001 0.001 0.001
region          target cylinder y 0.0 0.0 0.037 -0.0025 0.0 units box
create_box      1 target
Created orthogonal box = (-0.037 -0.0025 -0.037) to (0.037 0 0.037)
  1 by 1 by 1 MPI processor grid
create_atoms    1 region target
Created 12855 atoms

pair_style      peri/pmb
pair_coeff      * * 1.6863e22 0.0015001 0.0005 0.25
set             group all density 2200
  12855 settings made for density
set             group all volume 1.25e-10
  12855 settings made for volume
velocity        all set 0.0 0.0 0.0 sum no units box
fix             1 all nve
fix             2 all indent 1e16 sphere v_x v_y v_z v_w units box


print "Iteration:  i = $i , j = $j, k = $k, l = $l "
Iteration:  i = 2 , j = 4, k = 1, l = 1 

print " "
 
print " "
 
print "----------------------------------------------------------------"
----------------------------------------------------------------
print "Iteration ${count} of ${countmax}"
Iteration 9 of 675
print "----------------------------------------------------------------"
----------------------------------------------------------------
print " "
 

# Reset current timestep
reset_timestep 0

# spherical indenter to shatter target

#q is velocity for indent.txt
variable         q equal "1+(0.001*v_l)"

# indenter radius (w) for indent.txt
variable         w equal "0.0020+(0.001*v_k)"

#disk radius(v_r)
variable r equal 0.037

variable        y0 equal 0.00510
variable        vy equal -100
variable        y equal "v_y0 + v_q*step*dt*v_vy"

#Hit the whole disk
#variable        x equal "cos((PI/2)*v_i/v_imax)*((v_i-1)/v_imax*v_r)"
#variable        z equal "sin((PI/2)*v_j/v_jmax)*((v_j-1)/v_jmax*v_r)"

#Hit the disk reduced 5times compare to disk size
variable        x equal "cos((2*PI)*v_j/v_jmax)*(v_i/v_imax)*v_r*(0.2)"
variable        z equal "sin((2*PI)*v_j/v_jmax)*(v_i/v_imax)*v_r*(0.2)"

compute         1 all damage/atom
timestep        1.0e-7
thermo          100

variable shiftcount equal "v_count + v_countstart"
dump            ${shiftcount} all custom 1000 Data/dump_${shiftcount}.peri id type x y z c_1
dump            2334 all custom 1000 Data/dump_${shiftcount}.peri id type x y z c_1
dump            2334 all custom 1000 Data/dump_2334.peri id type x y z c_1

run             1000
Neighbor list info ...
  2 neighbor list requests
  update every 1 steps, delay 10 steps, check yes
  max neighbors/atom: 2000, page size: 100000
  master list distance cutoff = 0.0025001
  ghost atom cutoff = 0.0025001
  binsize = 0.00125005 -> bins = 60 3 60
Peridynamic bonds:
  total # of bonds = 185180
  bonds/atom = 14.4053
Memory usage per processor = 9.32606 Mbytes
Step Temp E_pair E_mol TotEng Press Volume 
       0            0            0            0            0            0 1.095912e-05 
     100            0            0            0            0            0 1.095912e-05 
     200            0            0            0            0            0 1.095912e-05 
     300 8.3243249e+22    29518.246            0    51677.865 1.3480171e+09 1.095912e-05 
     400 9.305297e+24    1470154.6            0    3947254.5 1.5068727e+11 1.095912e-05 
     500 1.4998657e+26      9703573            0     49630479 2.4288389e+12 1.095912e-05 
     600 6.6071549e+26     18654457            0 1.9453904e+08 8.3154408e+12 1.4101043e-05 
     700 1.5844483e+27     10229219            0 4.3201445e+08 1.0958416e+13 2.5659744e-05 
     800 2.0829348e+27    5656661.3            0 5.6014057e+08 9.767075e+12 3.7847149e-05 
     900 2.135598e+27      4604513            0 5.7310754e+08 7.1994837e+12 5.2642944e-05 
    1000 2.133808e+27    3738648.3            0 5.7176516e+08 5.3374813e+12 7.0948135e-05 
Loop time of 20.2914 on 1 procs for 1000 steps with 12855 atoms

96.8% CPU use with 1 MPI tasks x 1 OpenMP threads

MPI task timing breakdown:
Section |  min time  |  avg time  |  max time  |%varavg| %total
---------------------------------------------------------------
Pair    | 19.075     | 19.075     | 19.075     |   0.0 | 94.00
Neigh   | 0.20875    | 0.20875    | 0.20875    |   0.0 |  1.03
Comm    | 0.005481   | 0.005481   | 0.005481   |   0.0 |  0.03
Output  | 0.036784   | 0.036784   | 0.036784   |   0.0 |  0.18
Modify  | 0.75229    | 0.75229    | 0.75229    |   0.0 |  3.71
Other   |            | 0.2134     |            |       |  1.05

Nlocal:    12855 ave 12855 max 12855 min
Histogram: 1 0 0 0 0 0 0 0 0 0
Nghost:    0 ave 0 max 0 min
Histogram: 1 0 0 0 0 0 0 0 0 0
Neighs:    333076 ave 333076 max 333076 min
Histogram: 1 0 0 0 0 0 0 0 0 0
FullNghs:  674306 ave 674306 max 674306 min
Histogram: 1 0 0 0 0 0 0 0 0 0

Total # of neighbors = 674306
Ave neighs/atom = 52.4548
Neighbor list builds = 16
Dangerous builds = 0

# SAVE INDENTER
print $x file Data/indenter_${shiftcount}.txt
print -0.000798230101116615 file Data/indenter_${shiftcount}.txt
print -0.000798230101116615 file Data/indenter_2334.txt
-0.000798230101116615
print $z append Data/indenter_${shiftcount}.txt
print 0.00057994811559524 append Data/indenter_${shiftcount}.txt
print 0.00057994811559524 append Data/indenter_2334.txt
0.00057994811559524
print $w append Data/indenter_${shiftcount}.txt
print 0.003 append Data/indenter_${shiftcount}.txt
print 0.003 append Data/indenter_2334.txt
0.003
print $q append Data/indenter_${shiftcount}.txt
print 1.001 append Data/indenter_${shiftcount}.txt
print 1.001 append Data/indenter_2334.txt
1.001

next j
next count
jump SELF start_of_loop_4
variable j loop ${jmax}
variable j loop 10
clear
WARNING: OMP_NUM_THREADS environment is not set. (../comm.cpp:90)
  using 1 OpenMP thread(s) per MPI task

# DEFINE INITIAL CONDITIONS
# small Peridynamic cylinder hit by projectile
units		si
boundary        s s s
dimension	3
atom_style      peri
atom_modify	map array
neighbor        0.0010 bin

# small target
lattice         sc 0.001
Lattice spacing in x,y,z = 0.001 0.001 0.001
region          target cylinder y 0.0 0.0 0.037 -0.0025 0.0 units box
create_box      1 target
Created orthogonal box = (-0.037 -0.0025 -0.037) to (0.037 0 0.037)
  1 by 1 by 1 MPI processor grid
create_atoms    1 region target
Created 12855 atoms

pair_style      peri/pmb
pair_coeff      * * 1.6863e22 0.0015001 0.0005 0.25
set             group all density 2200
  12855 settings made for density
set             group all volume 1.25e-10
  12855 settings made for volume
velocity        all set 0.0 0.0 0.0 sum no units box
fix             1 all nve
fix             2 all indent 1e16 sphere v_x v_y v_z v_w units box


print "Iteration:  i = $i , j = $j, k = $k, l = $l "
Iteration:  i = 2 , j = 5, k = 1, l = 1 

print " "
 
print " "
 
print "----------------------------------------------------------------"
----------------------------------------------------------------
print "Iteration ${count} of ${countmax}"
Iteration 10 of 675
print "----------------------------------------------------------------"
----------------------------------------------------------------
print " "
 

# Reset current timestep
reset_timestep 0

# spherical indenter to shatter target

#q is velocity for indent.txt
variable         q equal "1+(0.001*v_l)"

# indenter radius (w) for indent.txt
variable         w equal "0.0020+(0.001*v_k)"

#disk radius(v_r)
variable r equal 0.037

variable        y0 equal 0.00510
variable        vy equal -100
variable        y equal "v_y0 + v_q*step*dt*v_vy"

#Hit the whole disk
#variable        x equal "cos((PI/2)*v_i/v_imax)*((v_i-1)/v_imax*v_r)"
#variable        z equal "sin((PI/2)*v_j/v_jmax)*((v_j-1)/v_jmax*v_r)"

#Hit the disk reduced 5times compare to disk size
variable        x equal "cos((2*PI)*v_j/v_jmax)*(v_i/v_imax)*v_r*(0.2)"
variable        z equal "sin((2*PI)*v_j/v_jmax)*(v_i/v_imax)*v_r*(0.2)"

compute         1 all damage/atom
timestep        1.0e-7
thermo          100

variable shiftcount equal "v_count + v_countstart"
dump            ${shiftcount} all custom 1000 Data/dump_${shiftcount}.peri id type x y z c_1
dump            2335 all custom 1000 Data/dump_${shiftcount}.peri id type x y z c_1
dump            2335 all custom 1000 Data/dump_2335.peri id type x y z c_1

run             1000
Neighbor list info ...
  2 neighbor list requests
  update every 1 steps, delay 10 steps, check yes
  max neighbors/atom: 2000, page size: 100000
  master list distance cutoff = 0.0025001
  ghost atom cutoff = 0.0025001
  binsize = 0.00125005 -> bins = 60 3 60
Peridynamic bonds:
  total # of bonds = 185180
  bonds/atom = 14.4053
Memory usage per processor = 9.32606 Mbytes
Step Temp E_pair E_mol TotEng Press Volume 
       0            0            0            0            0            0 1.095912e-05 
     100            0            0            0            0            0 1.095912e-05 
     200            0            0            0            0            0 1.095912e-05 
     300 8.4929571e+22    29267.609            0    51876.133 1.3753249e+09 1.095912e-05 
     400 9.5548248e+24    1290138.1            0    3833663.1 1.5472805e+11 1.095912e-05 
     500 1.6305908e+26    8992954.8            0     52399805 2.6405313e+12 1.095912e-05 
     600 8.3550206e+26     14851687            0 2.3726501e+08 1.0813107e+13 1.3712576e-05 
     700 1.7967036e+27     14815142            0 4.9310339e+08 1.371994e+13 2.3240542e-05 
     800 2.1800225e+27      9165227            0 5.8949421e+08 9.3353968e+12 4.1442908e-05 
     900 2.2371869e+27      4294558            0 5.9984089e+08 7.0215876e+12 5.6544319e-05 
    1000 2.2379196e+27    3427755.6            0 5.9916912e+08 5.5431728e+12 7.1648661e-05 
Loop time of 20.1696 on 1 procs for 1000 steps with 12855 atoms

97.4% CPU use with 1 MPI tasks x 1 OpenMP threads

MPI task timing breakdown:
Section |  min time  |  avg time  |  max time  |%varavg| %total
---------------------------------------------------------------
Pair    | 18.956     | 18.956     | 18.956     |   0.0 | 93.99
Neigh   | 0.2297     | 0.2297     | 0.2297     |   0.0 |  1.14
Comm    | 0.0062103  | 0.0062103  | 0.0062103  |   0.0 |  0.03
Output  | 0.042161   | 0.042161   | 0.042161   |   0.0 |  0.21
Modify  | 0.73547    | 0.73547    | 0.73547    |   0.0 |  3.65
Other   |            | 0.1996     |            |       |  0.99

Nlocal:    12855 ave 12855 max 12855 min
Histogram: 1 0 0 0 0 0 0 0 0 0
Nghost:    0 ave 0 max 0 min
Histogram: 1 0 0 0 0 0 0 0 0 0
Neighs:    333316 ave 333316 max 333316 min
Histogram: 1 0 0 0 0 0 0 0 0 0
FullNghs:  674306 ave 674306 max 674306 min
Histogram: 1 0 0 0 0 0 0 0 0 0

Total # of neighbors = 674306
Ave neighs/atom = 52.4548
Neighbor list builds = 17
Dangerous builds = 0

# SAVE INDENTER
print $x file Data/indenter_${shiftcount}.txt
print -0.000986666666666667 file Data/indenter_${shiftcount}.txt
print -0.000986666666666667 file Data/indenter_2335.txt
-0.000986666666666667
print $z append Data/indenter_${shiftcount}.txt
print 1.20831817515872e-19 append Data/indenter_${shiftcount}.txt
print 1.20831817515872e-19 append Data/indenter_2335.txt
1.20831817515872e-19
print $w append Data/indenter_${shiftcount}.txt
print 0.003 append Data/indenter_${shiftcount}.txt
print 0.003 append Data/indenter_2335.txt
0.003
print $q append Data/indenter_${shiftcount}.txt
print 1.001 append Data/indenter_${shiftcount}.txt
print 1.001 append Data/indenter_2335.txt
1.001

next j
next count
jump SELF start_of_loop_4
variable j loop ${jmax}
variable j loop 10
clear
WARNING: OMP_NUM_THREADS environment is not set. (../comm.cpp:90)
  using 1 OpenMP thread(s) per MPI task

# DEFINE INITIAL CONDITIONS
# small Peridynamic cylinder hit by projectile
units		si
boundary        s s s
dimension	3
atom_style      peri
atom_modify	map array
neighbor        0.0010 bin

# small target
lattice         sc 0.001
Lattice spacing in x,y,z = 0.001 0.001 0.001
region          target cylinder y 0.0 0.0 0.037 -0.0025 0.0 units box
create_box      1 target
Created orthogonal box = (-0.037 -0.0025 -0.037) to (0.037 0 0.037)
  1 by 1 by 1 MPI processor grid
create_atoms    1 region target
Created 12855 atoms

pair_style      peri/pmb
pair_coeff      * * 1.6863e22 0.0015001 0.0005 0.25
set             group all density 2200
  12855 settings made for density
set             group all volume 1.25e-10
  12855 settings made for volume
velocity        all set 0.0 0.0 0.0 sum no units box
fix             1 all nve
fix             2 all indent 1e16 sphere v_x v_y v_z v_w units box


print "Iteration:  i = $i , j = $j, k = $k, l = $l "
Iteration:  i = 2 , j = 6, k = 1, l = 1 

print " "
 
print " "
 
print "----------------------------------------------------------------"
----------------------------------------------------------------
print "Iteration ${count} of ${countmax}"
Iteration 11 of 675
print "----------------------------------------------------------------"
----------------------------------------------------------------
print " "
 

# Reset current timestep
reset_timestep 0

# spherical indenter to shatter target

#q is velocity for indent.txt
variable         q equal "1+(0.001*v_l)"

# indenter radius (w) for indent.txt
variable         w equal "0.0020+(0.001*v_k)"

#disk radius(v_r)
variable r equal 0.037

variable        y0 equal 0.00510
variable        vy equal -100
variable        y equal "v_y0 + v_q*step*dt*v_vy"

#Hit the whole disk
#variable        x equal "cos((PI/2)*v_i/v_imax)*((v_i-1)/v_imax*v_r)"
#variable        z equal "sin((PI/2)*v_j/v_jmax)*((v_j-1)/v_jmax*v_r)"

#Hit the disk reduced 5times compare to disk size
variable        x equal "cos((2*PI)*v_j/v_jmax)*(v_i/v_imax)*v_r*(0.2)"
variable        z equal "sin((2*PI)*v_j/v_jmax)*(v_i/v_imax)*v_r*(0.2)"

compute         1 all damage/atom
timestep        1.0e-7
thermo          100

variable shiftcount equal "v_count + v_countstart"
dump            ${shiftcount} all custom 1000 Data/dump_${shiftcount}.peri id type x y z c_1
dump            2336 all custom 1000 Data/dump_${shiftcount}.peri id type x y z c_1
dump            2336 all custom 1000 Data/dump_2336.peri id type x y z c_1

run             1000
Neighbor list info ...
  2 neighbor list requests
  update every 1 steps, delay 10 steps, check yes
  max neighbors/atom: 2000, page size: 100000
  master list distance cutoff = 0.0025001
  ghost atom cutoff = 0.0025001
  binsize = 0.00125005 -> bins = 60 3 60
Peridynamic bonds:
  total # of bonds = 185180
  bonds/atom = 14.4053
Memory usage per processor = 9.32606 Mbytes
Step Temp E_pair E_mol TotEng Press Volume 
       0            0            0            0            0            0 1.095912e-05 
     100            0            0            0            0            0 1.095912e-05 
     200            0            0            0            0            0 1.095912e-05 
     300 8.3243249e+22    29518.246            0    51677.865 1.3480171e+09 1.095912e-05 
     400 9.305297e+24    1470154.6            0    3947254.5 1.5068727e+11 1.095912e-05 
     500 1.4998657e+26      9703573            0     49630479 2.4288389e+12 1.095912e-05 
     600 6.6071549e+26     18654457            0 1.9453904e+08 8.3154408e+12 1.4101043e-05 
     700 1.5844483e+27     10229219            0 4.3201445e+08 1.0958416e+13 2.5659744e-05 
     800 2.0829348e+27    5656661.3            0 5.6014057e+08 9.767075e+12 3.7847149e-05 
     900 2.135598e+27      4604513            0 5.7310754e+08 7.1994837e+12 5.2642944e-05 
    1000 2.133808e+27    3738648.3            0 5.7176516e+08 5.3374813e+12 7.0948135e-05 
Loop time of 20.3644 on 1 procs for 1000 steps with 12855 atoms

96.9% CPU use with 1 MPI tasks x 1 OpenMP threads

MPI task timing breakdown:
Section |  min time  |  avg time  |  max time  |%varavg| %total
---------------------------------------------------------------
Pair    | 19.073     | 19.073     | 19.073     |   0.0 | 93.66
Neigh   | 0.21282    | 0.21282    | 0.21282    |   0.0 |  1.05
Comm    | 0.0057116  | 0.0057116  | 0.0057116  |   0.0 |  0.03
Output  | 0.034683   | 0.034683   | 0.034683   |   0.0 |  0.17
Modify  | 0.81723    | 0.81723    | 0.81723    |   0.0 |  4.01
Other   |            | 0.2209     |            |       |  1.08

Nlocal:    12855 ave 12855 max 12855 min
Histogram: 1 0 0 0 0 0 0 0 0 0
Nghost:    0 ave 0 max 0 min
Histogram: 1 0 0 0 0 0 0 0 0 0
Neighs:    333076 ave 333076 max 333076 min
Histogram: 1 0 0 0 0 0 0 0 0 0
FullNghs:  674306 ave 674306 max 674306 min
Histogram: 1 0 0 0 0 0 0 0 0 0

Total # of neighbors = 674306
Ave neighs/atom = 52.4548
Neighbor list builds = 16
Dangerous builds = 0

# SAVE INDENTER
print $x file Data/indenter_${shiftcount}.txt
print -0.000798230101116615 file Data/indenter_${shiftcount}.txt
print -0.000798230101116615 file Data/indenter_2336.txt
-0.000798230101116615
print $z append Data/indenter_${shiftcount}.txt
print -0.00057994811559524 append Data/indenter_${shiftcount}.txt
print -0.00057994811559524 append Data/indenter_2336.txt
-0.00057994811559524
print $w append Data/indenter_${shiftcount}.txt
print 0.003 append Data/indenter_${shiftcount}.txt
print 0.003 append Data/indenter_2336.txt
0.003
print $q append Data/indenter_${shiftcount}.txt
print 1.001 append Data/indenter_${shiftcount}.txt
print 1.001 append Data/indenter_2336.txt
1.001

next j
next count
jump SELF start_of_loop_4
variable j loop ${jmax}
variable j loop 10
clear
WARNING: OMP_NUM_THREADS environment is not set. (../comm.cpp:90)
  using 1 OpenMP thread(s) per MPI task

# DEFINE INITIAL CONDITIONS
# small Peridynamic cylinder hit by projectile
units		si
boundary        s s s
dimension	3
atom_style      peri
atom_modify	map array
neighbor        0.0010 bin

# small target
lattice         sc 0.001
Lattice spacing in x,y,z = 0.001 0.001 0.001
region          target cylinder y 0.0 0.0 0.037 -0.0025 0.0 units box
create_box      1 target
Created orthogonal box = (-0.037 -0.0025 -0.037) to (0.037 0 0.037)
  1 by 1 by 1 MPI processor grid
create_atoms    1 region target
Created 12855 atoms

pair_style      peri/pmb
pair_coeff      * * 1.6863e22 0.0015001 0.0005 0.25
set             group all density 2200
  12855 settings made for density
set             group all volume 1.25e-10
  12855 settings made for volume
velocity        all set 0.0 0.0 0.0 sum no units box
fix             1 all nve
fix             2 all indent 1e16 sphere v_x v_y v_z v_w units box


print "Iteration:  i = $i , j = $j, k = $k, l = $l "
Iteration:  i = 2 , j = 7, k = 1, l = 1 

print " "
 
print " "
 
print "----------------------------------------------------------------"
----------------------------------------------------------------
print "Iteration ${count} of ${countmax}"
Iteration 12 of 675
print "----------------------------------------------------------------"
----------------------------------------------------------------
print " "
 

# Reset current timestep
reset_timestep 0

# spherical indenter to shatter target

#q is velocity for indent.txt
variable         q equal "1+(0.001*v_l)"

# indenter radius (w) for indent.txt
variable         w equal "0.0020+(0.001*v_k)"

#disk radius(v_r)
variable r equal 0.037

variable        y0 equal 0.00510
variable        vy equal -100
variable        y equal "v_y0 + v_q*step*dt*v_vy"

#Hit the whole disk
#variable        x equal "cos((PI/2)*v_i/v_imax)*((v_i-1)/v_imax*v_r)"
#variable        z equal "sin((PI/2)*v_j/v_jmax)*((v_j-1)/v_jmax*v_r)"

#Hit the disk reduced 5times compare to disk size
variable        x equal "cos((2*PI)*v_j/v_jmax)*(v_i/v_imax)*v_r*(0.2)"
variable        z equal "sin((2*PI)*v_j/v_jmax)*(v_i/v_imax)*v_r*(0.2)"

compute         1 all damage/atom
timestep        1.0e-7
thermo          100

variable shiftcount equal "v_count + v_countstart"
dump            ${shiftcount} all custom 1000 Data/dump_${shiftcount}.peri id type x y z c_1
dump            2337 all custom 1000 Data/dump_${shiftcount}.peri id type x y z c_1
dump            2337 all custom 1000 Data/dump_2337.peri id type x y z c_1

run             1000
Neighbor list info ...
  2 neighbor list requests
  update every 1 steps, delay 10 steps, check yes
  max neighbors/atom: 2000, page size: 100000
  master list distance cutoff = 0.0025001
  ghost atom cutoff = 0.0025001
  binsize = 0.00125005 -> bins = 60 3 60
Peridynamic bonds:
  total # of bonds = 185180
  bonds/atom = 14.4053
Memory usage per processor = 9.32606 Mbytes
Step Temp E_pair E_mol TotEng Press Volume 
       0            0            0            0            0            0 1.095912e-05 
     100            0            0            0            0            0 1.095912e-05 
     200            0            0            0            0            0 1.095912e-05 
     300 8.3967626e+22    29436.981            0    51789.432 1.3597474e+09 1.095912e-05 
     400 9.3335882e+24    1418210.2            0    3902841.3 1.5114541e+11 1.095912e-05 
     500 1.5062978e+26    9927588.9            0     50025719 2.4392548e+12 1.095912e-05 
     600 6.4783615e+26     16393841            0 1.888499e+08 8.1535307e+12 1.4100727e-05 
     700 1.5508244e+27     10610884            0 4.2344531e+08 1.1172617e+13 2.4633704e-05 
     800 2.0284517e+27    5648415.1            0 5.4562875e+08 9.8744896e+12 3.6456253e-05 
     900 2.0804962e+27    3911497.9            0 5.5774626e+08 7.4346178e+12 4.9662698e-05 
    1000 2.079493e+27    3122585.7            0 5.5669027e+08 5.7589077e+12 6.4082487e-05 
Loop time of 20.7273 on 1 procs for 1000 steps with 12855 atoms

95.6% CPU use with 1 MPI tasks x 1 OpenMP threads

MPI task timing breakdown:
Section |  min time  |  avg time  |  max time  |%varavg| %total
---------------------------------------------------------------
Pair    | 19.376     | 19.376     | 19.376     |   0.0 | 93.48
Neigh   | 0.22456    | 0.22456    | 0.22456    |   0.0 |  1.08
Comm    | 0.0094833  | 0.0094833  | 0.0094833  |   0.0 |  0.05
Output  | 0.037162   | 0.037162   | 0.037162   |   0.0 |  0.18
Modify  | 0.84189    | 0.84189    | 0.84189    |   0.0 |  4.06
Other   |            | 0.2383     |            |       |  1.15

Nlocal:    12855 ave 12855 max 12855 min
Histogram: 1 0 0 0 0 0 0 0 0 0
Nghost:    0 ave 0 max 0 min
Histogram: 1 0 0 0 0 0 0 0 0 0
Neighs:    333530 ave 333530 max 333530 min
Histogram: 1 0 0 0 0 0 0 0 0 0
FullNghs:  674306 ave 674306 max 674306 min
Histogram: 1 0 0 0 0 0 0 0 0 0

Total # of neighbors = 674306
Ave neighs/atom = 52.4548
Neighbor list builds = 16
Dangerous builds = 0

# SAVE INDENTER
print $x file Data/indenter_${shiftcount}.txt
print -0.000304896767783282 file Data/indenter_${shiftcount}.txt
print -0.000304896767783282 file Data/indenter_2337.txt
-0.000304896767783282
print $z append Data/indenter_${shiftcount}.txt
print -0.000938375762744552 append Data/indenter_${shiftcount}.txt
print -0.000938375762744552 append Data/indenter_2337.txt
-0.000938375762744552
print $w append Data/indenter_${shiftcount}.txt
print 0.003 append Data/indenter_${shiftcount}.txt
print 0.003 append Data/indenter_2337.txt
0.003
print $q append Data/indenter_${shiftcount}.txt
print 1.001 append Data/indenter_${shiftcount}.txt
print 1.001 append Data/indenter_2337.txt
1.001

next j
next count
jump SELF start_of_loop_4
variable j loop ${jmax}
variable j loop 10
clear
WARNING: OMP_NUM_THREADS environment is not set. (../comm.cpp:90)
  using 1 OpenMP thread(s) per MPI task

# DEFINE INITIAL CONDITIONS
# small Peridynamic cylinder hit by projectile
units		si
boundary        s s s
dimension	3
atom_style      peri
atom_modify	map array
neighbor        0.0010 bin

# small target
lattice         sc 0.001
Lattice spacing in x,y,z = 0.001 0.001 0.001
region          target cylinder y 0.0 0.0 0.037 -0.0025 0.0 units box
create_box      1 target
Created orthogonal box = (-0.037 -0.0025 -0.037) to (0.037 0 0.037)
  1 by 1 by 1 MPI processor grid
create_atoms    1 region target
Created 12855 atoms

pair_style      peri/pmb
pair_coeff      * * 1.6863e22 0.0015001 0.0005 0.25
set             group all density 2200
  12855 settings made for density
set             group all volume 1.25e-10
  12855 settings made for volume
velocity        all set 0.0 0.0 0.0 sum no units box
fix             1 all nve
fix             2 all indent 1e16 sphere v_x v_y v_z v_w units box


print "Iteration:  i = $i , j = $j, k = $k, l = $l "
Iteration:  i = 2 , j = 8, k = 1, l = 1 

print " "
 
print " "
 
print "----------------------------------------------------------------"
----------------------------------------------------------------
print "Iteration ${count} of ${countmax}"
Iteration 13 of 675
print "----------------------------------------------------------------"
----------------------------------------------------------------
print " "
 

# Reset current timestep
reset_timestep 0

# spherical indenter to shatter target

#q is velocity for indent.txt
variable         q equal "1+(0.001*v_l)"

# indenter radius (w) for indent.txt
variable         w equal "0.0020+(0.001*v_k)"

#disk radius(v_r)
variable r equal 0.037

variable        y0 equal 0.00510
variable        vy equal -100
variable        y equal "v_y0 + v_q*step*dt*v_vy"

#Hit the whole disk
#variable        x equal "cos((PI/2)*v_i/v_imax)*((v_i-1)/v_imax*v_r)"
#variable        z equal "sin((PI/2)*v_j/v_jmax)*((v_j-1)/v_jmax*v_r)"

#Hit the disk reduced 5times compare to disk size
variable        x equal "cos((2*PI)*v_j/v_jmax)*(v_i/v_imax)*v_r*(0.2)"
variable        z equal "sin((2*PI)*v_j/v_jmax)*(v_i/v_imax)*v_r*(0.2)"

compute         1 all damage/atom
timestep        1.0e-7
thermo          100

variable shiftcount equal "v_count + v_countstart"
dump            ${shiftcount} all custom 1000 Data/dump_${shiftcount}.peri id type x y z c_1
dump            2338 all custom 1000 Data/dump_${shiftcount}.peri id type x y z c_1
dump            2338 all custom 1000 Data/dump_2338.peri id type x y z c_1

run             1000
Neighbor list info ...
  2 neighbor list requests
  update every 1 steps, delay 10 steps, check yes
  max neighbors/atom: 2000, page size: 100000
  master list distance cutoff = 0.0025001
  ghost atom cutoff = 0.0025001
  binsize = 0.00125005 -> bins = 60 3 60
Peridynamic bonds:
  total # of bonds = 185180
  bonds/atom = 14.4053
Memory usage per processor = 9.32606 Mbytes
Step Temp E_pair E_mol TotEng Press Volume 
       0            0            0            0            0            0 1.095912e-05 
     100            0            0            0            0            0 1.095912e-05 
     200            0            0            0            0            0 1.095912e-05 
     300 8.3967626e+22    29436.981            0    51789.432 1.3597474e+09 1.095912e-05 
     400 9.3335882e+24    1418210.2            0    3902841.3 1.5114541e+11 1.095912e-05 
     500 1.5062978e+26    9927588.9            0     50025719 2.4392548e+12 1.095912e-05 
     600 6.4783615e+26     16393841            0 1.888499e+08 8.1535307e+12 1.4100727e-05 
     700 1.5508244e+27     10610884            0 4.2344531e+08 1.1172617e+13 2.4633704e-05 
     800 2.0284517e+27    5648415.1            0 5.4562875e+08 9.8744896e+12 3.6456253e-05 
     900 2.0804962e+27    3911497.9            0 5.5774626e+08 7.4346178e+12 4.9662698e-05 
    1000 2.079493e+27    3122585.7            0 5.5669027e+08 5.7589077e+12 6.4082487e-05 
Loop time of 20.4918 on 1 procs for 1000 steps with 12855 atoms

96.5% CPU use with 1 MPI tasks x 1 OpenMP threads

MPI task timing breakdown:
Section |  min time  |  avg time  |  max time  |%varavg| %total
---------------------------------------------------------------
Pair    | 19.18      | 19.18      | 19.18      |   0.0 | 93.60
Neigh   | 0.21973    | 0.21973    | 0.21973    |   0.0 |  1.07
Comm    | 0.0055065  | 0.0055065  | 0.0055065  |   0.0 |  0.03
Output  | 0.053311   | 0.053311   | 0.053311   |   0.0 |  0.26
Modify  | 0.81151    | 0.81151    | 0.81151    |   0.0 |  3.96
Other   |            | 0.2212     |            |       |  1.08

Nlocal:    12855 ave 12855 max 12855 min
Histogram: 1 0 0 0 0 0 0 0 0 0
Nghost:    0 ave 0 max 0 min
Histogram: 1 0 0 0 0 0 0 0 0 0
Neighs:    333530 ave 333530 max 333530 min
Histogram: 1 0 0 0 0 0 0 0 0 0
FullNghs:  674306 ave 674306 max 674306 min
Histogram: 1 0 0 0 0 0 0 0 0 0

Total # of neighbors = 674306
Ave neighs/atom = 52.4548
Neighbor list builds = 16
Dangerous builds = 0

# SAVE INDENTER
print $x file Data/indenter_${shiftcount}.txt
print 0.000304896767783281 file Data/indenter_${shiftcount}.txt
print 0.000304896767783281 file Data/indenter_2338.txt
0.000304896767783281
print $z append Data/indenter_${shiftcount}.txt
print -0.000938375762744552 append Data/indenter_${shiftcount}.txt
print -0.000938375762744552 append Data/indenter_2338.txt
-0.000938375762744552
print $w append Data/indenter_${shiftcount}.txt
print 0.003 append Data/indenter_${shiftcount}.txt
print 0.003 append Data/indenter_2338.txt
0.003
print $q append Data/indenter_${shiftcount}.txt
print 1.001 append Data/indenter_${shiftcount}.txt
print 1.001 append Data/indenter_2338.txt
1.001

next j
next count
jump SELF start_of_loop_4
variable j loop ${jmax}
variable j loop 10
clear
WARNING: OMP_NUM_THREADS environment is not set. (../comm.cpp:90)
  using 1 OpenMP thread(s) per MPI task

# DEFINE INITIAL CONDITIONS
# small Peridynamic cylinder hit by projectile
units		si
boundary        s s s
dimension	3
atom_style      peri
atom_modify	map array
neighbor        0.0010 bin

# small target
lattice         sc 0.001
Lattice spacing in x,y,z = 0.001 0.001 0.001
region          target cylinder y 0.0 0.0 0.037 -0.0025 0.0 units box
create_box      1 target
Created orthogonal box = (-0.037 -0.0025 -0.037) to (0.037 0 0.037)
  1 by 1 by 1 MPI processor grid
create_atoms    1 region target
Created 12855 atoms

pair_style      peri/pmb
pair_coeff      * * 1.6863e22 0.0015001 0.0005 0.25
set             group all density 2200
  12855 settings made for density
set             group all volume 1.25e-10
  12855 settings made for volume
velocity        all set 0.0 0.0 0.0 sum no units box
fix             1 all nve
fix             2 all indent 1e16 sphere v_x v_y v_z v_w units box


print "Iteration:  i = $i , j = $j, k = $k, l = $l "
Iteration:  i = 2 , j = 9, k = 1, l = 1 

print " "
 
print " "
 
print "----------------------------------------------------------------"
----------------------------------------------------------------
print "Iteration ${count} of ${countmax}"
Iteration 14 of 675
print "----------------------------------------------------------------"
----------------------------------------------------------------
print " "
 

# Reset current timestep
reset_timestep 0

# spherical indenter to shatter target

#q is velocity for indent.txt
variable         q equal "1+(0.001*v_l)"

# indenter radius (w) for indent.txt
variable         w equal "0.0020+(0.001*v_k)"

#disk radius(v_r)
variable r equal 0.037

variable        y0 equal 0.00510
variable        vy equal -100
variable        y equal "v_y0 + v_q*step*dt*v_vy"

#Hit the whole disk
#variable        x equal "cos((PI/2)*v_i/v_imax)*((v_i-1)/v_imax*v_r)"
#variable        z equal "sin((PI/2)*v_j/v_jmax)*((v_j-1)/v_jmax*v_r)"

#Hit the disk reduced 5times compare to disk size
variable        x equal "cos((2*PI)*v_j/v_jmax)*(v_i/v_imax)*v_r*(0.2)"
variable        z equal "sin((2*PI)*v_j/v_jmax)*(v_i/v_imax)*v_r*(0.2)"

compute         1 all damage/atom
timestep        1.0e-7
thermo          100

variable shiftcount equal "v_count + v_countstart"
dump            ${shiftcount} all custom 1000 Data/dump_${shiftcount}.peri id type x y z c_1
[...]
     600 6.6256656e+26     18320023            0 1.9469736e+08 8.5470118e+12 1.3757427e-05 
     700 1.5807156e+27      8903065            0 4.2969463e+08 1.177774e+13 2.3818467e-05 
     800 2.047548e+27    6360480.6            0 5.5142432e+08 9.3618146e+12 3.8814686e-05 
     900 2.0940925e+27    4091235.1            0 5.6154538e+08 6.7759591e+12 5.4846272e-05 
    1000 2.0901327e+27    3683533.6            0 5.6008356e+08 5.2328795e+12 7.0885132e-05 
Loop time of 20.9411 on 1 procs for 1000 steps with 12855 atoms

96.6% CPU use with 1 MPI tasks x 1 OpenMP threads

MPI task timing breakdown:
Section |  min time  |  avg time  |  max time  |%varavg| %total
---------------------------------------------------------------
Pair    | 19.333     | 19.333     | 19.333     |   0.0 | 92.32
Neigh   | 0.22358    | 0.22358    | 0.22358    |   0.0 |  1.07
Comm    | 0.0062373  | 0.0062373  | 0.0062373  |   0.0 |  0.03
Output  | 0.043908   | 0.043908   | 0.043908   |   0.0 |  0.21
Modify  | 1.0145     | 1.0145     | 1.0145     |   0.0 |  4.84
Other   |            | 0.3202     |            |       |  1.53

Nlocal:    12855 ave 12855 max 12855 min
Histogram: 1 0 0 0 0 0 0 0 0 0
Nghost:    0 ave 0 max 0 min
Histogram: 1 0 0 0 0 0 0 0 0 0
Neighs:    333604 ave 333604 max 333604 min
Histogram: 1 0 0 0 0 0 0 0 0 0
FullNghs:  674306 ave 674306 max 674306 min
Histogram: 1 0 0 0 0 0 0 0 0 0

Total # of neighbors = 674306
Ave neighs/atom = 52.4548
Neighbor list builds = 16
Dangerous builds = 0

# SAVE INDENTER
print $x file Data/indenter_${shiftcount}.txt
print 0.00716751539235187 file Data/indenter_${shiftcount}.txt
print 0.00716751539235187 file Data/indenter_2922.txt
0.00716751539235187
print $z append Data/indenter_${shiftcount}.txt
print -0.00184030516501993 append Data/indenter_${shiftcount}.txt
print -0.00184030516501993 append Data/indenter_2922.txt
-0.00184030516501993
print $w append Data/indenter_${shiftcount}.txt
print 0.003 append Data/indenter_${shiftcount}.txt
print 0.003 append Data/indenter_2922.txt
0.003
print $q append Data/indenter_${shiftcount}.txt
print 1.001 append Data/indenter_${shiftcount}.txt
print 1.001 append Data/indenter_2922.txt
1.001

next j
next count
jump SELF start_of_loop_4
variable j loop ${jmax}
variable j loop 75
clear
WARNING: OMP_NUM_THREADS environment is not set. (../comm.cpp:90)
  using 1 OpenMP thread(s) per MPI task

# DEFINE INITIAL CONDITIONS
# small Peridynamic cylinder hit by projectile
units		si
boundary        s s s
dimension	3
atom_style      peri
atom_modify	map array
neighbor        0.0010 bin

# small target
lattice         sc 0.001
Lattice spacing in x,y,z = 0.001 0.001 0.001
region          target cylinder y 0.0 0.0 0.037 -0.0025 0.0 units box
create_box      1 target
Created orthogonal box = (-0.037 -0.0025 -0.037) to (0.037 0 0.037)
  1 by 1 by 1 MPI processor grid
create_atoms    1 region target
Created 12855 atoms

pair_style      peri/pmb
pair_coeff      * * 1.6863e22 0.0015001 0.0005 0.25
set             group all density 2200
  12855 settings made for density
set             group all volume 1.25e-10
  12855 settings made for volume
velocity        all set 0.0 0.0 0.0 sum no units box
fix             1 all nve
fix             2 all indent 1e16 sphere v_x v_y v_z v_w units box


print "Iteration:  i = $i , j = $j, k = $k, l = $l "
Iteration:  i = 15 , j = 73, k = 1, l = 1 

print " "
 
print " "
 
print "----------------------------------------------------------------"
----------------------------------------------------------------
print "Iteration ${count} of ${countmax}"
Iteration 598 of 675
print "----------------------------------------------------------------"
----------------------------------------------------------------
print " "
 

# Reset current timestep
reset_timestep 0

# spherical indenter to shatter target

#q is velocity for indent.txt
variable         q equal "1+(0.001*v_l)"

# indenter radius (w) for indent.txt
variable         w equal "0.0020+(0.001*v_k)"

#disk radius(v_r)
variable r equal 0.037

variable        y0 equal 0.00510
variable        vy equal -100
variable        y equal "v_y0 + v_q*step*dt*v_vy"

#Hit the whole disk
#variable        x equal "cos((PI/2)*v_i/v_imax)*((v_i-1)/v_imax*v_r)"
#variable        z equal "sin((PI/2)*v_j/v_jmax)*((v_j-1)/v_jmax*v_r)"

#Hit the disk reduced 5times compare to disk size
variable        x equal "cos((2*PI)*v_j/v_jmax)*(v_i/v_imax)*v_r*(0.2)"
variable        z equal "sin((2*PI)*v_j/v_jmax)*(v_i/v_imax)*v_r*(0.2)"

compute         1 all damage/atom
timestep        1.0e-7
thermo          100

variable shiftcount equal "v_count + v_countstart"
dump            ${shiftcount} all custom 1000 Data/dump_${shiftcount}.peri id type x y z c_1
dump            2923 all custom 1000 Data/dump_${shiftcount}.peri id type x y z c_1
dump            2923 all custom 1000 Data/dump_2923.peri id type x y z c_1

run             1000
Neighbor list info ...
  2 neighbor list requests
  update every 1 steps, delay 10 steps, check yes
  max neighbors/atom: 2000, page size: 100000
  master list distance cutoff = 0.0025001
  ghost atom cutoff = 0.0025001
  binsize = 0.00125005 -> bins = 60 3 60
Peridynamic bonds:
  total # of bonds = 185180
  bonds/atom = 14.4053
Memory usage per processor = 9.32606 Mbytes
Step Temp E_pair E_mol TotEng Press Volume 
       0            0            0            0            0            0 1.095912e-05 
     100            0            0            0            0            0 1.095912e-05 
     200            0            0            0            0            0 1.095912e-05 
     300 8.3507283e+22    29478.621            0    51708.527 1.3522928e+09 1.095912e-05 
     400 9.3673259e+24    1452253.7            0    3945865.9 1.5169175e+11 1.095912e-05 
     500 1.4921745e+26      9777361            0     49499524 2.4163839e+12 1.095912e-05 
     600 6.4063025e+26     17508242            0 1.8804607e+08 8.0240028e+12 1.4168974e-05 
     700 1.5578662e+27    9792134.4            0 4.2450111e+08 1.0700533e+13 2.5837278e-05 
     800 2.0730783e+27    4275758.5            0 5.5613584e+08 9.910885e+12 3.712148e-05 
     900 2.1255045e+27    5056820.6            0 5.7087293e+08 7.4578105e+12 5.0579287e-05 
    1000 2.1265425e+27    3167721.7            0 5.6926016e+08 5.8542951e+12 6.4464629e-05 
Loop time of 21.0223 on 1 procs for 1000 steps with 12855 atoms

96.5% CPU use with 1 MPI tasks x 1 OpenMP threads

MPI task timing breakdown:
Section |  min time  |  avg time  |  max time  |%varavg| %total
---------------------------------------------------------------
Pair    | 19.387     | 19.387     | 19.387     |   0.0 | 92.22
Neigh   | 0.20643    | 0.20643    | 0.20643    |   0.0 |  0.98
Comm    | 0.0060911  | 0.0060911  | 0.0060911  |   0.0 |  0.03
Output  | 0.045847   | 0.045847   | 0.045847   |   0.0 |  0.22
Modify  | 1.0408     | 1.0408     | 1.0408     |   0.0 |  4.95
Other   |            | 0.3366     |            |       |  1.60

Nlocal:    12855 ave 12855 max 12855 min
Histogram: 1 0 0 0 0 0 0 0 0 0
Nghost:    0 ave 0 max 0 min
Histogram: 1 0 0 0 0 0 0 0 0 0
Neighs:    333417 ave 333417 max 333417 min
Histogram: 1 0 0 0 0 0 0 0 0 0
FullNghs:  674306 ave 674306 max 674306 min
Histogram: 1 0 0 0 0 0 0 0 0 0

Total # of neighbors = 674306
Ave neighs/atom = 52.4548
Neighbor list builds = 15
Dangerous builds = 0

# SAVE INDENTER
print $x file Data/indenter_${shiftcount}.txt
print 0.00729637067432174 file Data/indenter_${shiftcount}.txt
print 0.00729637067432174 file Data/indenter_2923.txt
0.00729637067432174
print $z append Data/indenter_${shiftcount}.txt
print -0.00123408872569916 append Data/indenter_${shiftcount}.txt
print -0.00123408872569916 append Data/indenter_2923.txt
-0.00123408872569916
print $w append Data/indenter_${shiftcount}.txt
print 0.003 append Data/indenter_${shiftcount}.txt
print 0.003 append Data/indenter_2923.txt
0.003
print $q append Data/indenter_${shiftcount}.txt
print 1.001 append Data/indenter_${shiftcount}.txt
print 1.001 append Data/indenter_2923.txt
1.001

next j
next count
jump SELF start_of_loop_4
variable j loop ${jmax}
variable j loop 75
clear
WARNING: OMP_NUM_THREADS environment is not set. (../comm.cpp:90)
  using 1 OpenMP thread(s) per MPI task

# DEFINE INITIAL CONDITIONS
# small Peridynamic cylinder hit by projectile
units		si
boundary        s s s
dimension	3
atom_style      peri
atom_modify	map array
neighbor        0.0010 bin

# small target
lattice         sc 0.001
Lattice spacing in x,y,z = 0.001 0.001 0.001
region          target cylinder y 0.0 0.0 0.037 -0.0025 0.0 units box
create_box      1 target
Created orthogonal box = (-0.037 -0.0025 -0.037) to (0.037 0 0.037)
  1 by 1 by 1 MPI processor grid
create_atoms    1 region target
Created 12855 atoms

pair_style      peri/pmb
pair_coeff      * * 1.6863e22 0.0015001 0.0005 0.25
set             group all density 2200
  12855 settings made for density
set             group all volume 1.25e-10
  12855 settings made for volume
velocity        all set 0.0 0.0 0.0 sum no units box
fix             1 all nve
fix             2 all indent 1e16 sphere v_x v_y v_z v_w units box


print "Iteration:  i = $i , j = $j, k = $k, l = $l "
Iteration:  i = 15 , j = 74, k = 1, l = 1 

print " "
 
print " "
 
print "----------------------------------------------------------------"
----------------------------------------------------------------
print "Iteration ${count} of ${countmax}"
Iteration 599 of 675
print "----------------------------------------------------------------"
----------------------------------------------------------------
print " "
 

# Reset current timestep
reset_timestep 0

# spherical indenter to shatter target

#q is velocity for indent.txt
variable         q equal "1+(0.001*v_l)"

# indenter radius (w) for indent.txt
variable         w equal "0.0020+(0.001*v_k)"

#disk radius(v_r)
variable r equal 0.037

variable        y0 equal 0.00510
variable        vy equal -100
variable        y equal "v_y0 + v_q*step*dt*v_vy"

#Hit the whole disk
#variable        x equal "cos((PI/2)*v_i/v_imax)*((v_i-1)/v_imax*v_r)"
#variable        z equal "sin((PI/2)*v_j/v_jmax)*((v_j-1)/v_jmax*v_r)"

#Hit the disk reduced 5times compare to disk size
variable        x equal "cos((2*PI)*v_j/v_jmax)*(v_i/v_imax)*v_r*(0.2)"
variable        z equal "sin((2*PI)*v_j/v_jmax)*(v_i/v_imax)*v_r*(0.2)"

compute         1 all damage/atom
timestep        1.0e-7
thermo          100

variable shiftcount equal "v_count + v_countstart"
dump            ${shiftcount} all custom 1000 Data/dump_${shiftcount}.peri id type x y z c_1
dump            2924 all custom 1000 Data/dump_${shiftcount}.peri id type x y z c_1
dump            2924 all custom 1000 Data/dump_2924.peri id type x y z c_1

run             1000
Neighbor list info ...
  2 neighbor list requests
  update every 1 steps, delay 10 steps, check yes
  max neighbors/atom: 2000, page size: 100000
  master list distance cutoff = 0.0025001
  ghost atom cutoff = 0.0025001
  binsize = 0.00125005 -> bins = 60 3 60
Peridynamic bonds:
  total # of bonds = 185180
  bonds/atom = 14.4053
Memory usage per processor = 9.32606 Mbytes
Step Temp E_pair E_mol TotEng Press Volume 
       0            0            0            0            0            0 1.095912e-05 
     100            0            0            0            0            0 1.095912e-05 
     200            0            0            0            0            0 1.095912e-05 
     300 8.2828226e+22    29546.309            0    51595.448 1.3412963e+09 1.095912e-05 
     400 9.4142285e+24    1500940.8            0    4007038.6 1.5245128e+11 1.095912e-05 
     500 1.4803197e+26    8999767.7            0     48406352 2.3971866e+12 1.095912e-05 
     600 6.2612608e+26     14578771            0 1.8125554e+08 7.8534609e+12 1.4148902e-05 
     700 1.514313e+27     12070841            0 4.1518581e+08 1.1815638e+13 2.2744714e-05 
     800 2.0421233e+27    4589914.7            0 5.4820969e+08 9.2103595e+12 3.934843e-05 
     900 2.1075478e+27    4621281.5            0 5.6565724e+08 6.9077957e+12 5.4145199e-05 
    1000 2.1065188e+27    3454038.8            0 5.642161e+08 5.4453306e+12 6.8653568e-05 
Loop time of 20.8361 on 1 procs for 1000 steps with 12855 atoms

97.4% CPU use with 1 MPI tasks x 1 OpenMP threads

MPI task timing breakdown:
Section |  min time  |  avg time  |  max time  |%varavg| %total
---------------------------------------------------------------
Pair    | 19.239     | 19.239     | 19.239     |   0.0 | 92.33
Neigh   | 0.20005    | 0.20005    | 0.20005    |   0.0 |  0.96
Comm    | 0.0060508  | 0.0060508  | 0.0060508  |   0.0 |  0.03
Output  | 0.041656   | 0.041656   | 0.041656   |   0.0 |  0.20
Modify  | 1.0223     | 1.0223     | 1.0223     |   0.0 |  4.91
Other   |            | 0.3275     |            |       |  1.57

Nlocal:    12855 ave 12855 max 12855 min
Histogram: 1 0 0 0 0 0 0 0 0 0
Nghost:    0 ave 0 max 0 min
Histogram: 1 0 0 0 0 0 0 0 0 0
Neighs:    333393 ave 333393 max 333393 min
Histogram: 1 0 0 0 0 0 0 0 0 0
FullNghs:  674306 ave 674306 max 674306 min
Histogram: 1 0 0 0 0 0 0 0 0 0

Total # of neighbors = 674306
Ave neighs/atom = 52.4548
Neighbor list builds = 15
Dangerous builds = 0

# SAVE INDENTER
print $x file Data/indenter_${shiftcount}.txt
print 0.00737404715844633 file Data/indenter_${shiftcount}.txt
print 0.00737404715844633 file Data/indenter_2924.txt
0.00737404715844633
print $z append Data/indenter_${shiftcount}.txt
print -0.000619216040659137 append Data/indenter_${shiftcount}.txt
print -0.000619216040659137 append Data/indenter_2924.txt
-0.000619216040659137
print $w append Data/indenter_${shiftcount}.txt
print 0.003 append Data/indenter_${shiftcount}.txt
print 0.003 append Data/indenter_2924.txt
0.003
print $q append Data/indenter_${shiftcount}.txt
print 1.001 append Data/indenter_${shiftcount}.txt
print 1.001 append Data/indenter_2924.txt
1.001

next j
next count
jump SELF start_of_loop_4
variable j loop ${jmax}
variable j loop 75
clear
WARNING: OMP_NUM_THREADS environment is not set. (../comm.cpp:90)
  using 1 OpenMP thread(s) per MPI task

# DEFINE INITIAL CONDITIONS
# small Peridynamic cylinder hit by projectile
units		si
boundary        s s s
dimension	3
atom_style      peri
atom_modify	map array
neighbor        0.0010 bin

# small target
lattice         sc 0.001
Lattice spacing in x,y,z = 0.001 0.001 0.001
region          target cylinder y 0.0 0.0 0.037 -0.0025 0.0 units box
create_box      1 target
Created orthogonal box = (-0.037 -0.0025 -0.037) to (0.037 0 0.037)
  1 by 1 by 1 MPI processor grid
create_atoms    1 region target
Created 12855 atoms

pair_style      peri/pmb
pair_coeff      * * 1.6863e22 0.0015001 0.0005 0.25
set             group all density 2200
  12855 settings made for density
set             group all volume 1.25e-10
  12855 settings made for volume
velocity        all set 0.0 0.0 0.0 sum no units box
fix             1 all nve
fix             2 all indent 1e16 sphere v_x v_y v_z v_w units box


print "Iteration:  i = $i , j = $j, k = $k, l = $l "
Iteration:  i = 15 , j = 75, k = 1, l = 1 

print " "
 
print " "
 
print "----------------------------------------------------------------"
----------------------------------------------------------------
print "Iteration ${count} of ${countmax}"
Iteration 600 of 675
print "----------------------------------------------------------------"
----------------------------------------------------------------
print " "
 

# Reset current timestep
reset_timestep 0

# spherical indenter to shatter target

#q is velocity for indent.txt
variable         q equal "1+(0.001*v_l)"

# indenter radius (w) for indent.txt
variable         w equal "0.0020+(0.001*v_k)"

#disk radius(v_r)
variable r equal 0.037

variable        y0 equal 0.00510
variable        vy equal -100
variable        y equal "v_y0 + v_q*step*dt*v_vy"

#Hit the whole disk
#variable        x equal "cos((PI/2)*v_i/v_imax)*((v_i-1)/v_imax*v_r)"
#variable        z equal "sin((PI/2)*v_j/v_jmax)*((v_j-1)/v_jmax*v_r)"

#Hit the disk reduced 5times compare to disk size
variable        x equal "cos((2*PI)*v_j/v_jmax)*(v_i/v_imax)*v_r*(0.2)"
variable        z equal "sin((2*PI)*v_j/v_jmax)*(v_i/v_imax)*v_r*(0.2)"

compute         1 all damage/atom
timestep        1.0e-7
thermo          100

variable shiftcount equal "v_count + v_countstart"
dump            ${shiftcount} all custom 1000 Data/dump_${shiftcount}.peri id type x y z c_1
dump            2925 all custom 1000 Data/dump_${shiftcount}.peri id type x y z c_1
dump            2925 all custom 1000 Data/dump_2925.peri id type x y z c_1

run             1000
Neighbor list info ...
  2 neighbor list requests
  update every 1 steps, delay 10 steps, check yes
  max neighbors/atom: 2000, page size: 100000
  master list distance cutoff = 0.0025001
  ghost atom cutoff = 0.0025001
  binsize = 0.00125005 -> bins = 60 3 60
Peridynamic bonds:
  total # of bonds = 185180
  bonds/atom = 14.4053
Memory usage per processor = 9.32606 Mbytes
Step Temp E_pair E_mol TotEng Press Volume 
       0            0            0            0            0            0 1.095912e-05 
     100            0            0            0            0            0 1.095912e-05 
     200            0            0            0            0            0 1.095912e-05 
     300 8.3687561e+22    29489.054            0    51766.951 1.3552122e+09 1.095912e-05 
     400 9.3226717e+24    1428113.8            0    3909838.9 1.5096863e+11 1.095912e-05 
     500 1.4958572e+26    9580365.2            0     49400563 2.4223476e+12 1.095912e-05 
     600 6.6496462e+26     14728061            0 1.9174377e+08 8.3443164e+12 1.4142617e-05 
     700 1.5935857e+27    9384318.3            0 4.3360194e+08 1.1431464e+13 2.4739766e-05 
     800 2.0727095e+27    5497152.6            0 5.5725907e+08 1.0470034e+13 3.5132768e-05 
     900 2.1246233e+27    3237676.6            0 5.6881919e+08 7.4784173e+12 5.0419003e-05 
    1000 2.1176043e+27    3382106.5            0 5.6709514e+08 5.7166743e+12 6.5739042e-05 
Loop time of 21.4942 on 1 procs for 1000 steps with 12855 atoms

94.2% CPU use with 1 MPI tasks x 1 OpenMP threads

MPI task timing breakdown:
Section |  min time  |  avg time  |  max time  |%varavg| %total
---------------------------------------------------------------
Pair    | 19.832     | 19.832     | 19.832     |   0.0 | 92.27
Neigh   | 0.2262     | 0.2262     | 0.2262     |   0.0 |  1.05
Comm    | 0.0063789  | 0.0063789  | 0.0063789  |   0.0 |  0.03
Output  | 0.050194   | 0.050194   | 0.050194   |   0.0 |  0.23
Modify  | 1.058      | 1.058      | 1.058      |   0.0 |  4.92
Other   |            | 0.3211     |            |       |  1.49

Nlocal:    12855 ave 12855 max 12855 min
Histogram: 1 0 0 0 0 0 0 0 0 0
Nghost:    0 ave 0 max 0 min
Histogram: 1 0 0 0 0 0 0 0 0 0
Neighs:    333341 ave 333341 max 333341 min
Histogram: 1 0 0 0 0 0 0 0 0 0
FullNghs:  674306 ave 674306 max 674306 min
Histogram: 1 0 0 0 0 0 0 0 0 0

Total # of neighbors = 674306
Ave neighs/atom = 52.4548
Neighbor list builds = 15
Dangerous builds = 0

# SAVE INDENTER
print $x file Data/indenter_${shiftcount}.txt
print 0.0074 file Data/indenter_${shiftcount}.txt
print 0.0074 file Data/indenter_2925.txt
0.0074
print $z append Data/indenter_${shiftcount}.txt
print -1.81247726273808e-18 append Data/indenter_${shiftcount}.txt
print -1.81247726273808e-18 append Data/indenter_2925.txt
-1.81247726273808e-18
print $w append Data/indenter_${shiftcount}.txt
print 0.003 append Data/indenter_${shiftcount}.txt
print 0.003 append Data/indenter_2925.txt
0.003
print $q append Data/indenter_${shiftcount}.txt
print 1.001 append Data/indenter_${shiftcount}.txt
print 1.001 append Data/indenter_2925.txt
1.001

next j
next count
jump SELF start_of_loop_4

next i
jump SELF start_of_loop_3

next k
jump SELF start_of_loop_2

next l
jump SELF start_of_loop_1


Please see the log.cite file for references relevant to this simulation

Total wall time: 3:25:56
